BEGIN_INFO
Fermi Energy: -0.234375000000
END_INFO

BEGIN_BLOCK_BANDGRID_3D
comment_line
BEGIN_BANDGRID_3D_simple_example
65
10 2 10
0.0 0.0 0.0
   0.7388708257    0.0000000000    0.0000000000
   0.0000000000    0.1662459358    0.0000000000
   0.0000000000    0.0000000000    0.7388708257
BAND:  1
  -0.80694   -0.80691   -0.80683   -0.80674   -0.80668   -0.80668   -0.80674   -0.80683   -0.80691   -0.80694 
  -0.80694   -0.80691   -0.80683   -0.80674   -0.80668   -0.80668   -0.80674   -0.80683   -0.80691   -0.80694 

  -0.80689   -0.80686   -0.80678   -0.80669   -0.80663   -0.80663   -0.80669   -0.80678   -0.80686   -0.80689 
  -0.80689   -0.80686   -0.80678   -0.80669   -0.80663   -0.80663   -0.80669   -0.80678   -0.80686   -0.80689 

  -0.80677   -0.80674   -0.80666   -0.80657   -0.80651   -0.80651   -0.80657   -0.80666   -0.80674   -0.80677 
  -0.80677   -0.80674   -0.80666   -0.80657   -0.80651   -0.80651   -0.80657   -0.80666   -0.80674   -0.80677 

  -0.80662   -0.80659   -0.80651   -0.80643   -0.80637   -0.80637   -0.80643   -0.80651   -0.80659   -0.80662 
  -0.80662   -0.80659   -0.80651   -0.80643   -0.80637   -0.80637   -0.80643   -0.80651   -0.80659   -0.80662 

  -0.80652   -0.80650   -0.80642   -0.80633   -0.80627   -0.80627   -0.80633   -0.80642   -0.80650   -0.80652 
  -0.80652   -0.80650   -0.80642   -0.80633   -0.80627   -0.80627   -0.80633   -0.80642   -0.80650   -0.80652 

  -0.80652   -0.80650   -0.80642   -0.80633   -0.80627   -0.80627   -0.80633   -0.80642   -0.80650   -0.80652 
  -0.80652   -0.80650   -0.80642   -0.80633   -0.80627   -0.80627   -0.80633   -0.80642   -0.80650   -0.80652 

  -0.80662   -0.80659   -0.80651   -0.80643   -0.80637   -0.80637   -0.80643   -0.80651   -0.80659   -0.80662 
  -0.80662   -0.80659   -0.80651   -0.80643   -0.80637   -0.80637   -0.80643   -0.80651   -0.80659   -0.80662 

  -0.80677   -0.80674   -0.80666   -0.80657   -0.80651   -0.80651   -0.80657   -0.80666   -0.80674   -0.80677 
  -0.80677   -0.80674   -0.80666   -0.80657   -0.80651   -0.80651   -0.80657   -0.80666   -0.80674   -0.80677 

  -0.80689   -0.80686   -0.80678   -0.80669   -0.80663   -0.80663   -0.80669   -0.80678   -0.80686   -0.80689 
  -0.80689   -0.80686   -0.80678   -0.80669   -0.80663   -0.80663   -0.80669   -0.80678   -0.80686   -0.80689 

  -0.80694   -0.80691   -0.80683   -0.80674   -0.80668   -0.80668   -0.80674   -0.80683   -0.80691   -0.80694 
  -0.80694   -0.80691   -0.80683   -0.80674   -0.80668   -0.80668   -0.80674   -0.80683   -0.80691   -0.80694 
BAND:  2
  -0.74314   -0.74311   -0.74302   -0.74293   -0.74286   -0.74286   -0.74293   -0.74302   -0.74311   -0.74314 
  -0.74314   -0.74311   -0.74302   -0.74293   -0.74286   -0.74286   -0.74293   -0.74302   -0.74311   -0.74314 

  -0.74309   -0.74305   -0.74297   -0.74288   -0.74282   -0.74282   -0.74288   -0.74297   -0.74305   -0.74309 
  -0.74309   -0.74305   -0.74297   -0.74288   -0.74282   -0.74282   -0.74288   -0.74297   -0.74305   -0.74309 

  -0.74296   -0.74293   -0.74285   -0.74275   -0.74269   -0.74269   -0.74275   -0.74285   -0.74293   -0.74296 
  -0.74296   -0.74293   -0.74285   -0.74275   -0.74269   -0.74269   -0.74275   -0.74285   -0.74293   -0.74296 

  -0.74281   -0.74278   -0.74270   -0.74261   -0.74255   -0.74255   -0.74261   -0.74270   -0.74278   -0.74281 
  -0.74281   -0.74278   -0.74270   -0.74261   -0.74255   -0.74255   -0.74261   -0.74270   -0.74278   -0.74281 

  -0.74271   -0.74268   -0.74261   -0.74252   -0.74246   -0.74246   -0.74252   -0.74261   -0.74268   -0.74271 
  -0.74271   -0.74268   -0.74261   -0.74252   -0.74246   -0.74246   -0.74252   -0.74261   -0.74268   -0.74271 

  -0.74271   -0.74268   -0.74261   -0.74252   -0.74246   -0.74246   -0.74252   -0.74261   -0.74268   -0.74271 
  -0.74271   -0.74268   -0.74261   -0.74252   -0.74246   -0.74246   -0.74252   -0.74261   -0.74268   -0.74271 

  -0.74281   -0.74278   -0.74270   -0.74261   -0.74255   -0.74255   -0.74261   -0.74270   -0.74278   -0.74281 
  -0.74281   -0.74278   -0.74270   -0.74261   -0.74255   -0.74255   -0.74261   -0.74270   -0.74278   -0.74281 

  -0.74296   -0.74293   -0.74285   -0.74275   -0.74269   -0.74269   -0.74275   -0.74285   -0.74293   -0.74296 
  -0.74296   -0.74293   -0.74285   -0.74275   -0.74269   -0.74269   -0.74275   -0.74285   -0.74293   -0.74296 

  -0.74309   -0.74305   -0.74297   -0.74288   -0.74282   -0.74282   -0.74288   -0.74297   -0.74305   -0.74309 
  -0.74309   -0.74305   -0.74297   -0.74288   -0.74282   -0.74282   -0.74288   -0.74297   -0.74305   -0.74309 

  -0.74314   -0.74311   -0.74302   -0.74293   -0.74286   -0.74286   -0.74293   -0.74302   -0.74311   -0.74314 
  -0.74314   -0.74311   -0.74302   -0.74293   -0.74286   -0.74286   -0.74293   -0.74302   -0.74311   -0.74314 
BAND:  3
  -0.67204   -0.67202   -0.67195   -0.67187   -0.67182   -0.67182   -0.67187   -0.67195   -0.67202   -0.67204 
  -0.67204   -0.67202   -0.67195   -0.67187   -0.67182   -0.67182   -0.67187   -0.67195   -0.67202   -0.67204 

  -0.67203   -0.67200   -0.67193   -0.67185   -0.67180   -0.67180   -0.67185   -0.67193   -0.67200   -0.67203 
  -0.67203   -0.67200   -0.67193   -0.67185   -0.67180   -0.67180   -0.67185   -0.67193   -0.67200   -0.67203 

  -0.67198   -0.67195   -0.67189   -0.67181   -0.67176   -0.67176   -0.67181   -0.67189   -0.67195   -0.67198 
  -0.67198   -0.67195   -0.67189   -0.67181   -0.67176   -0.67176   -0.67181   -0.67189   -0.67195   -0.67198 

  -0.67193   -0.67190   -0.67184   -0.67176   -0.67171   -0.67171   -0.67176   -0.67184   -0.67190   -0.67193 
  -0.67193   -0.67190   -0.67184   -0.67176   -0.67171   -0.67171   -0.67176   -0.67184   -0.67190   -0.67193 

  -0.67190   -0.67187   -0.67181   -0.67173   -0.67168   -0.67168   -0.67173   -0.67181   -0.67187   -0.67190 
  -0.67190   -0.67187   -0.67181   -0.67173   -0.67168   -0.67168   -0.67173   -0.67181   -0.67187   -0.67190 

  -0.67190   -0.67187   -0.67181   -0.67173   -0.67168   -0.67168   -0.67173   -0.67181   -0.67187   -0.67190 
  -0.67190   -0.67187   -0.67181   -0.67173   -0.67168   -0.67168   -0.67173   -0.67181   -0.67187   -0.67190 

  -0.67193   -0.67190   -0.67184   -0.67176   -0.67171   -0.67171   -0.67176   -0.67184   -0.67190   -0.67193 
  -0.67193   -0.67190   -0.67184   -0.67176   -0.67171   -0.67171   -0.67176   -0.67184   -0.67190   -0.67193 

  -0.67198   -0.67195   -0.67189   -0.67181   -0.67176   -0.67176   -0.67181   -0.67189   -0.67195   -0.67198 
  -0.67198   -0.67195   -0.67189   -0.67181   -0.67176   -0.67176   -0.67181   -0.67189   -0.67195   -0.67198 

  -0.67203   -0.67200   -0.67193   -0.67185   -0.67180   -0.67180   -0.67185   -0.67193   -0.67200   -0.67203 
  -0.67203   -0.67200   -0.67193   -0.67185   -0.67180   -0.67180   -0.67185   -0.67193   -0.67200   -0.67203 

  -0.67204   -0.67202   -0.67195   -0.67187   -0.67182   -0.67182   -0.67187   -0.67195   -0.67202   -0.67204 
  -0.67204   -0.67202   -0.67195   -0.67187   -0.67182   -0.67182   -0.67187   -0.67195   -0.67202   -0.67204 
BAND:  4
  -0.60222   -0.60220   -0.60218   -0.60214   -0.60212   -0.60212   -0.60214   -0.60218   -0.60220   -0.60222 
  -0.60222   -0.60220   -0.60218   -0.60214   -0.60212   -0.60212   -0.60214   -0.60218   -0.60220   -0.60222 

  -0.60222   -0.60221   -0.60218   -0.60215   -0.60212   -0.60212   -0.60215   -0.60218   -0.60221   -0.60222 
  -0.60222   -0.60221   -0.60218   -0.60215   -0.60212   -0.60212   -0.60215   -0.60218   -0.60221   -0.60222 

  -0.60224   -0.60222   -0.60219   -0.60216   -0.60214   -0.60214   -0.60216   -0.60219   -0.60222   -0.60224 
  -0.60224   -0.60222   -0.60219   -0.60216   -0.60214   -0.60214   -0.60216   -0.60219   -0.60222   -0.60224 

  -0.60225   -0.60224   -0.60221   -0.60218   -0.60216   -0.60216   -0.60218   -0.60221   -0.60224   -0.60225 
  -0.60225   -0.60224   -0.60221   -0.60218   -0.60216   -0.60216   -0.60218   -0.60221   -0.60224   -0.60225 

  -0.60227   -0.60225   -0.60223   -0.60219   -0.60217   -0.60217   -0.60219   -0.60223   -0.60225   -0.60227 
  -0.60227   -0.60225   -0.60223   -0.60219   -0.60217   -0.60217   -0.60219   -0.60223   -0.60225   -0.60227 

  -0.60227   -0.60225   -0.60223   -0.60219   -0.60217   -0.60217   -0.60219   -0.60223   -0.60225   -0.60227 
  -0.60227   -0.60225   -0.60223   -0.60219   -0.60217   -0.60217   -0.60219   -0.60223   -0.60225   -0.60227 

  -0.60225   -0.60224   -0.60221   -0.60218   -0.60216   -0.60216   -0.60218   -0.60221   -0.60224   -0.60225 
  -0.60225   -0.60224   -0.60221   -0.60218   -0.60216   -0.60216   -0.60218   -0.60221   -0.60224   -0.60225 

  -0.60224   -0.60222   -0.60219   -0.60216   -0.60214   -0.60214   -0.60216   -0.60219   -0.60222   -0.60224 
  -0.60224   -0.60222   -0.60219   -0.60216   -0.60214   -0.60214   -0.60216   -0.60219   -0.60222   -0.60224 

  -0.60222   -0.60221   -0.60218   -0.60215   -0.60212   -0.60212   -0.60215   -0.60218   -0.60221   -0.60222 
  -0.60222   -0.60221   -0.60218   -0.60215   -0.60212   -0.60212   -0.60215   -0.60218   -0.60221   -0.60222 

  -0.60222   -0.60220   -0.60218   -0.60214   -0.60212   -0.60212   -0.60214   -0.60218   -0.60220   -0.60222 
  -0.60222   -0.60220   -0.60218   -0.60214   -0.60212   -0.60212   -0.60214   -0.60218   -0.60220   -0.60222 
BAND:  5
  -0.38885   -0.38932   -0.39053   -0.39191   -0.39282   -0.39282   -0.39191   -0.39053   -0.38932   -0.38885 
  -0.38885   -0.38932   -0.39053   -0.39191   -0.39282   -0.39282   -0.39191   -0.39053   -0.38932   -0.38885 

  -0.38882   -0.38929   -0.39049   -0.39187   -0.39279   -0.39279   -0.39187   -0.39049   -0.38929   -0.38882 
  -0.38882   -0.38929   -0.39049   -0.39187   -0.39279   -0.39279   -0.39187   -0.39049   -0.38929   -0.38882 

  -0.38986   -0.38984   -0.39040   -0.39178   -0.39269   -0.39269   -0.39178   -0.39040   -0.38984   -0.38986 
  -0.38986   -0.38984   -0.39040   -0.39178   -0.39269   -0.39269   -0.39178   -0.39040   -0.38984   -0.38986 

  -0.39178   -0.39176   -0.39170   -0.39169   -0.39258   -0.39258   -0.39169   -0.39170   -0.39176   -0.39178 
  -0.39178   -0.39176   -0.39170   -0.39169   -0.39258   -0.39258   -0.39169   -0.39170   -0.39176   -0.39178 

  -0.39303   -0.39301   -0.39295   -0.39289   -0.39284   -0.39284   -0.39289   -0.39295   -0.39301   -0.39303 
  -0.39303   -0.39301   -0.39295   -0.39289   -0.39284   -0.39284   -0.39289   -0.39295   -0.39301   -0.39303 

  -0.39303   -0.39301   -0.39295   -0.39289   -0.39284   -0.39284   -0.39289   -0.39295   -0.39301   -0.39303 
  -0.39303   -0.39301   -0.39295   -0.39289   -0.39284   -0.39284   -0.39289   -0.39295   -0.39301   -0.39303 

  -0.39178   -0.39176   -0.39170   -0.39169   -0.39258   -0.39258   -0.39169   -0.39170   -0.39176   -0.39178 
  -0.39178   -0.39176   -0.39170   -0.39169   -0.39258   -0.39258   -0.39169   -0.39170   -0.39176   -0.39178 

  -0.38986   -0.38984   -0.39040   -0.39178   -0.39269   -0.39269   -0.39178   -0.39040   -0.38984   -0.38986 
  -0.38986   -0.38984   -0.39040   -0.39178   -0.39269   -0.39269   -0.39178   -0.39040   -0.38984   -0.38986 

  -0.38882   -0.38929   -0.39049   -0.39187   -0.39279   -0.39279   -0.39187   -0.39049   -0.38929   -0.38882 
  -0.38882   -0.38929   -0.39049   -0.39187   -0.39279   -0.39279   -0.39187   -0.39049   -0.38929   -0.38882 

  -0.38885   -0.38932   -0.39053   -0.39191   -0.39282   -0.39282   -0.39191   -0.39053   -0.38932   -0.38885 
  -0.38885   -0.38932   -0.39053   -0.39191   -0.39282   -0.39282   -0.39191   -0.39053   -0.38932   -0.38885 
BAND:  6
  -0.38751   -0.38749   -0.38744   -0.38739   -0.38735   -0.38735   -0.38739   -0.38744   -0.38749   -0.38751 
  -0.38751   -0.38749   -0.38744   -0.38739   -0.38735   -0.38735   -0.38739   -0.38744   -0.38749   -0.38751 

  -0.38818   -0.38816   -0.38811   -0.38805   -0.38801   -0.38801   -0.38805   -0.38811   -0.38816   -0.38818 
  -0.38818   -0.38816   -0.38811   -0.38805   -0.38801   -0.38801   -0.38805   -0.38811   -0.38816   -0.38818 

  -0.38873   -0.38920   -0.38978   -0.38973   -0.38969   -0.38969   -0.38973   -0.38978   -0.38920   -0.38873 
  -0.38873   -0.38920   -0.38978   -0.38973   -0.38969   -0.38969   -0.38973   -0.38978   -0.38920   -0.38873 

  -0.38863   -0.38910   -0.39030   -0.39162   -0.39160   -0.39160   -0.39162   -0.39030   -0.38910   -0.38863 
  -0.38863   -0.38910   -0.39030   -0.39162   -0.39160   -0.39160   -0.39162   -0.39030   -0.38910   -0.38863 

  -0.38857   -0.38904   -0.39023   -0.39160   -0.39251   -0.39251   -0.39160   -0.39023   -0.38904   -0.38857 
  -0.38857   -0.38904   -0.39023   -0.39160   -0.39251   -0.39251   -0.39160   -0.39023   -0.38904   -0.38857 

  -0.38857   -0.38904   -0.39023   -0.39160   -0.39251   -0.39251   -0.39160   -0.39023   -0.38904   -0.38857 
  -0.38857   -0.38904   -0.39023   -0.39160   -0.39251   -0.39251   -0.39160   -0.39023   -0.38904   -0.38857 

  -0.38863   -0.38910   -0.39030   -0.39162   -0.39160   -0.39160   -0.39162   -0.39030   -0.38910   -0.38863 
  -0.38863   -0.38910   -0.39030   -0.39162   -0.39160   -0.39160   -0.39162   -0.39030   -0.38910   -0.38863 

  -0.38873   -0.38920   -0.38978   -0.38973   -0.38969   -0.38969   -0.38973   -0.38978   -0.38920   -0.38873 
  -0.38873   -0.38920   -0.38978   -0.38973   -0.38969   -0.38969   -0.38973   -0.38978   -0.38920   -0.38873 

  -0.38818   -0.38816   -0.38811   -0.38805   -0.38801   -0.38801   -0.38805   -0.38811   -0.38816   -0.38818 
  -0.38818   -0.38816   -0.38811   -0.38805   -0.38801   -0.38801   -0.38805   -0.38811   -0.38816   -0.38818 

  -0.38751   -0.38749   -0.38744   -0.38739   -0.38735   -0.38735   -0.38739   -0.38744   -0.38749   -0.38751 
  -0.38751   -0.38749   -0.38744   -0.38739   -0.38735   -0.38735   -0.38739   -0.38744   -0.38749   -0.38751 
BAND:  7
  -0.29735   -0.29792   -0.29936   -0.30099   -0.30204   -0.30204   -0.30099   -0.29936   -0.29792   -0.29735 
  -0.29735   -0.29792   -0.29936   -0.30099   -0.30204   -0.30204   -0.30099   -0.29936   -0.29792   -0.29735 

  -0.29832   -0.29830   -0.29932   -0.30094   -0.30199   -0.30199   -0.30094   -0.29932   -0.29830   -0.29832 
  -0.29832   -0.29830   -0.29932   -0.30094   -0.30199   -0.30199   -0.30094   -0.29932   -0.29830   -0.29832 

  -0.30075   -0.30072   -0.30064   -0.30084   -0.30185   -0.30185   -0.30084   -0.30064   -0.30072   -0.30075 
  -0.30075   -0.30072   -0.30064   -0.30084   -0.30185   -0.30185   -0.30084   -0.30064   -0.30072   -0.30075 

  -0.30339   -0.30335   -0.30326   -0.30316   -0.30309   -0.30309   -0.30316   -0.30326   -0.30335   -0.30339 
  -0.30339   -0.30335   -0.30326   -0.30316   -0.30309   -0.30309   -0.30316   -0.30326   -0.30335   -0.30339 

  -0.30505   -0.30501   -0.30491   -0.30480   -0.30472   -0.30472   -0.30480   -0.30491   -0.30501   -0.30505 
  -0.30505   -0.30501   -0.30491   -0.30480   -0.30472   -0.30472   -0.30480   -0.30491   -0.30501   -0.30505 

  -0.30505   -0.30501   -0.30491   -0.30480   -0.30472   -0.30472   -0.30480   -0.30491   -0.30501   -0.30505 
  -0.30505   -0.30501   -0.30491   -0.30480   -0.30472   -0.30472   -0.30480   -0.30491   -0.30501   -0.30505 

  -0.30338   -0.30335   -0.30326   -0.30316   -0.30309   -0.30309   -0.30316   -0.30326   -0.30335   -0.30338 
  -0.30338   -0.30335   -0.30326   -0.30316   -0.30309   -0.30309   -0.30316   -0.30326   -0.30335   -0.30338 

  -0.30075   -0.30072   -0.30064   -0.30084   -0.30185   -0.30185   -0.30084   -0.30064   -0.30072   -0.30075 
  -0.30075   -0.30072   -0.30064   -0.30084   -0.30185   -0.30185   -0.30084   -0.30064   -0.30072   -0.30075 

  -0.29832   -0.29830   -0.29932   -0.30094   -0.30199   -0.30199   -0.30094   -0.29932   -0.29830   -0.29832 
  -0.29832   -0.29830   -0.29932   -0.30094   -0.30199   -0.30199   -0.30094   -0.29932   -0.29830   -0.29832 

  -0.29735   -0.29792   -0.29936   -0.30099   -0.30204   -0.30204   -0.30099   -0.29936   -0.29792   -0.29735 
  -0.29735   -0.29792   -0.29936   -0.30099   -0.30204   -0.30204   -0.30099   -0.29936   -0.29792   -0.29735 
BAND:  8
  -0.29732   -0.29730   -0.29724   -0.29716   -0.29712   -0.29712   -0.29716   -0.29724   -0.29730   -0.29732 
  -0.29732   -0.29730   -0.29724   -0.29716   -0.29712   -0.29712   -0.29716   -0.29724   -0.29730   -0.29732 

  -0.29730   -0.29787   -0.29821   -0.29814   -0.29809   -0.29809   -0.29814   -0.29821   -0.29787   -0.29730 
  -0.29730   -0.29787   -0.29821   -0.29814   -0.29809   -0.29809   -0.29814   -0.29821   -0.29787   -0.29730 

  -0.29718   -0.29775   -0.29917   -0.30050   -0.30048   -0.30048   -0.30050   -0.29917   -0.29775   -0.29718 
  -0.29718   -0.29775   -0.29917   -0.30050   -0.30048   -0.30048   -0.30050   -0.29917   -0.29775   -0.29718 

  -0.29704   -0.29761   -0.29903   -0.30064   -0.30169   -0.30169   -0.30064   -0.29903   -0.29761   -0.29704 
  -0.29704   -0.29761   -0.29903   -0.30064   -0.30169   -0.30169   -0.30064   -0.29903   -0.29761   -0.29704 

  -0.29695   -0.29752   -0.29894   -0.30054   -0.30158   -0.30158   -0.30054   -0.29894   -0.29752   -0.29695 
  -0.29695   -0.29752   -0.29894   -0.30054   -0.30158   -0.30158   -0.30054   -0.29894   -0.29752   -0.29695 

  -0.29695   -0.29752   -0.29894   -0.30054   -0.30158   -0.30158   -0.30054   -0.29894   -0.29752   -0.29695 
  -0.29695   -0.29752   -0.29894   -0.30054   -0.30158   -0.30158   -0.30054   -0.29894   -0.29752   -0.29695 

  -0.29704   -0.29761   -0.29903   -0.30064   -0.30169   -0.30169   -0.30064   -0.29903   -0.29761   -0.29704 
  -0.29704   -0.29761   -0.29903   -0.30064   -0.30169   -0.30169   -0.30064   -0.29903   -0.29761   -0.29704 

  -0.29718   -0.29775   -0.29917   -0.30050   -0.30048   -0.30048   -0.30050   -0.29917   -0.29775   -0.29718 
  -0.29718   -0.29775   -0.29917   -0.30050   -0.30048   -0.30048   -0.30050   -0.29917   -0.29775   -0.29718 

  -0.29730   -0.29787   -0.29821   -0.29814   -0.29809   -0.29809   -0.29814   -0.29821   -0.29787   -0.29730 
  -0.29730   -0.29787   -0.29821   -0.29814   -0.29809   -0.29809   -0.29814   -0.29821   -0.29787   -0.29730 

  -0.29732   -0.29730   -0.29724   -0.29716   -0.29712   -0.29712   -0.29716   -0.29724   -0.29730   -0.29732 
  -0.29732   -0.29730   -0.29724   -0.29716   -0.29712   -0.29712   -0.29716   -0.29724   -0.29730   -0.29732 
BAND:  9
  -0.27621   -0.27608   -0.27576   -0.27538   -0.27513   -0.27513   -0.27538   -0.27576   -0.27608   -0.27621 
  -0.27621   -0.27608   -0.27576   -0.27538   -0.27513   -0.27513   -0.27538   -0.27576   -0.27608   -0.27621 

  -0.27612   -0.27599   -0.27567   -0.27530   -0.27504   -0.27504   -0.27530   -0.27567   -0.27599   -0.27612 
  -0.27612   -0.27599   -0.27567   -0.27530   -0.27504   -0.27504   -0.27530   -0.27567   -0.27599   -0.27612 

  -0.27586   -0.27574   -0.27542   -0.27505   -0.27480   -0.27480   -0.27505   -0.27542   -0.27574   -0.27586 
  -0.27586   -0.27574   -0.27542   -0.27505   -0.27480   -0.27480   -0.27505   -0.27542   -0.27574   -0.27586 

  -0.27549   -0.27537   -0.27505   -0.27469   -0.27444   -0.27444   -0.27469   -0.27505   -0.27537   -0.27549 
  -0.27549   -0.27537   -0.27505   -0.27469   -0.27444   -0.27444   -0.27469   -0.27505   -0.27537   -0.27549 

  -0.27509   -0.27497   -0.27467   -0.27431   -0.27407   -0.27407   -0.27431   -0.27467   -0.27497   -0.27509 
  -0.27509   -0.27497   -0.27467   -0.27431   -0.27407   -0.27407   -0.27431   -0.27467   -0.27497   -0.27509 

  -0.27509   -0.27497   -0.27467   -0.27431   -0.27407   -0.27407   -0.27431   -0.27467   -0.27497   -0.27509 
  -0.27509   -0.27497   -0.27467   -0.27431   -0.27407   -0.27407   -0.27431   -0.27467   -0.27497   -0.27509 

  -0.27549   -0.27537   -0.27505   -0.27469   -0.27444   -0.27444   -0.27469   -0.27505   -0.27537   -0.27549 
  -0.27549   -0.27537   -0.27505   -0.27469   -0.27444   -0.27444   -0.27469   -0.27505   -0.27537   -0.27549 

  -0.27586   -0.27574   -0.27542   -0.27505   -0.27480   -0.27480   -0.27505   -0.27542   -0.27574   -0.27586 
  -0.27586   -0.27574   -0.27542   -0.27505   -0.27480   -0.27480   -0.27505   -0.27542   -0.27574   -0.27586 

  -0.27612   -0.27599   -0.27567   -0.27530   -0.27504   -0.27504   -0.27530   -0.27567   -0.27599   -0.27612 
  -0.27612   -0.27599   -0.27567   -0.27530   -0.27504   -0.27504   -0.27530   -0.27567   -0.27599   -0.27612 

  -0.27621   -0.27608   -0.27576   -0.27538   -0.27513   -0.27513   -0.27538   -0.27576   -0.27608   -0.27621 
  -0.27621   -0.27608   -0.27576   -0.27538   -0.27513   -0.27513   -0.27538   -0.27576   -0.27608   -0.27621 
BAND:  10
  -0.27468   -0.27455   -0.27421   -0.27383   -0.27359   -0.27359   -0.27383   -0.27421   -0.27455   -0.27468 
  -0.27468   -0.27455   -0.27421   -0.27383   -0.27359   -0.27359   -0.27383   -0.27421   -0.27455   -0.27468 

  -0.27460   -0.27447   -0.27413   -0.27376   -0.27352   -0.27352   -0.27376   -0.27413   -0.27447   -0.27460 
  -0.27460   -0.27447   -0.27413   -0.27376   -0.27352   -0.27352   -0.27376   -0.27413   -0.27447   -0.27460 

  -0.27448   -0.27435   -0.27402   -0.27365   -0.27342   -0.27342   -0.27365   -0.27402   -0.27435   -0.27448 
  -0.27448   -0.27435   -0.27402   -0.27365   -0.27342   -0.27342   -0.27365   -0.27402   -0.27435   -0.27448 

  -0.27448   -0.27436   -0.27404   -0.27367   -0.27344   -0.27344   -0.27367   -0.27404   -0.27436   -0.27448 
  -0.27448   -0.27436   -0.27404   -0.27367   -0.27344   -0.27344   -0.27367   -0.27404   -0.27436   -0.27448 

  -0.27467   -0.27454   -0.27422   -0.27386   -0.27362   -0.27362   -0.27386   -0.27422   -0.27454   -0.27467 
  -0.27467   -0.27454   -0.27422   -0.27386   -0.27362   -0.27362   -0.27386   -0.27422   -0.27454   -0.27467 

  -0.27467   -0.27454   -0.27422   -0.27386   -0.27362   -0.27362   -0.27386   -0.27422   -0.27454   -0.27467 
  -0.27467   -0.27454   -0.27422   -0.27386   -0.27362   -0.27362   -0.27386   -0.27422   -0.27454   -0.27467 

  -0.27448   -0.27436   -0.27404   -0.27367   -0.27344   -0.27344   -0.27367   -0.27404   -0.27436   -0.27448 
  -0.27448   -0.27436   -0.27404   -0.27367   -0.27344   -0.27344   -0.27367   -0.27404   -0.27436   -0.27448 

  -0.27448   -0.27435   -0.27402   -0.27365   -0.27342   -0.27342   -0.27365   -0.27402   -0.27435   -0.27448 
  -0.27448   -0.27435   -0.27402   -0.27365   -0.27342   -0.27342   -0.27365   -0.27402   -0.27435   -0.27448 

  -0.27460   -0.27447   -0.27413   -0.27376   -0.27352   -0.27352   -0.27376   -0.27413   -0.27447   -0.27460 
  -0.27460   -0.27447   -0.27413   -0.27376   -0.27352   -0.27352   -0.27376   -0.27413   -0.27447   -0.27460 

  -0.27468   -0.27455   -0.27421   -0.27383   -0.27359   -0.27359   -0.27383   -0.27421   -0.27455   -0.27468 
  -0.27468   -0.27455   -0.27421   -0.27383   -0.27359   -0.27359   -0.27383   -0.27421   -0.27455   -0.27468 
BAND:  11
  -0.19195   -0.19260   -0.19426   -0.19617   -0.19743   -0.19743   -0.19617   -0.19426   -0.19260   -0.19195 
  -0.19195   -0.19260   -0.19426   -0.19617   -0.19743   -0.19743   -0.19617   -0.19426   -0.19260   -0.19195 

  -0.19193   -0.19258   -0.19424   -0.19615   -0.19740   -0.19740   -0.19615   -0.19424   -0.19258   -0.19193 
  -0.19193   -0.19258   -0.19424   -0.19615   -0.19740   -0.19740   -0.19615   -0.19424   -0.19258   -0.19193 

  -0.19212   -0.19254   -0.19419   -0.19610   -0.19735   -0.19735   -0.19610   -0.19419   -0.19254   -0.19212 
  -0.19212   -0.19254   -0.19419   -0.19610   -0.19735   -0.19735   -0.19610   -0.19419   -0.19254   -0.19212 

  -0.19291   -0.19288   -0.19414   -0.19604   -0.19729   -0.19729   -0.19604   -0.19414   -0.19288   -0.19291 
  -0.19291   -0.19288   -0.19414   -0.19604   -0.19729   -0.19729   -0.19604   -0.19414   -0.19288   -0.19291 

  -0.19340   -0.19336   -0.19410   -0.19600   -0.19725   -0.19725   -0.19600   -0.19410   -0.19336   -0.19340 
  -0.19340   -0.19336   -0.19410   -0.19600   -0.19725   -0.19725   -0.19600   -0.19410   -0.19336   -0.19340 

  -0.19340   -0.19336   -0.19410   -0.19600   -0.19725   -0.19725   -0.19600   -0.19410   -0.19336   -0.19340 
  -0.19340   -0.19336   -0.19410   -0.19600   -0.19725   -0.19725   -0.19600   -0.19410   -0.19336   -0.19340 

  -0.19291   -0.19288   -0.19414   -0.19604   -0.19729   -0.19729   -0.19604   -0.19414   -0.19288   -0.19291 
  -0.19291   -0.19288   -0.19414   -0.19604   -0.19729   -0.19729   -0.19604   -0.19414   -0.19288   -0.19291 

  -0.19212   -0.19254   -0.19419   -0.19610   -0.19735   -0.19735   -0.19610   -0.19419   -0.19254   -0.19212 
  -0.19212   -0.19254   -0.19419   -0.19610   -0.19735   -0.19735   -0.19610   -0.19419   -0.19254   -0.19212 

  -0.19193   -0.19258   -0.19424   -0.19615   -0.19740   -0.19740   -0.19615   -0.19424   -0.19258   -0.19193 
  -0.19193   -0.19258   -0.19424   -0.19615   -0.19740   -0.19740   -0.19615   -0.19424   -0.19258   -0.19193 

  -0.19195   -0.19260   -0.19426   -0.19617   -0.19743   -0.19743   -0.19617   -0.19426   -0.19260   -0.19195 
  -0.19195   -0.19260   -0.19426   -0.19617   -0.19743   -0.19743   -0.19617   -0.19426   -0.19260   -0.19195 
BAND:  12
  -0.19109   -0.19105   -0.19098   -0.19089   -0.19083   -0.19083   -0.19089   -0.19098   -0.19105   -0.19109 
  -0.19109   -0.19105   -0.19098   -0.19089   -0.19083   -0.19083   -0.19089   -0.19098   -0.19105   -0.19109 

  -0.19139   -0.19136   -0.19128   -0.19119   -0.19113   -0.19113   -0.19119   -0.19128   -0.19136   -0.19139 
  -0.19139   -0.19136   -0.19128   -0.19119   -0.19113   -0.19113   -0.19119   -0.19128   -0.19136   -0.19139 

  -0.19189   -0.19209   -0.19201   -0.19192   -0.19186   -0.19186   -0.19192   -0.19201   -0.19209   -0.19189 
  -0.19189   -0.19209   -0.19201   -0.19192   -0.19186   -0.19186   -0.19192   -0.19201   -0.19209   -0.19189 

  -0.19184   -0.19248   -0.19279   -0.19270   -0.19264   -0.19264   -0.19270   -0.19279   -0.19248   -0.19184 
  -0.19184   -0.19248   -0.19279   -0.19270   -0.19264   -0.19264   -0.19270   -0.19279   -0.19248   -0.19184 

  -0.19180   -0.19245   -0.19328   -0.19318   -0.19311   -0.19311   -0.19318   -0.19328   -0.19245   -0.19180 
  -0.19180   -0.19245   -0.19328   -0.19318   -0.19311   -0.19311   -0.19318   -0.19328   -0.19245   -0.19180 

  -0.19180   -0.19245   -0.19328   -0.19318   -0.19311   -0.19311   -0.19318   -0.19328   -0.19245   -0.19180 
  -0.19180   -0.19245   -0.19328   -0.19318   -0.19311   -0.19311   -0.19318   -0.19328   -0.19245   -0.19180 

  -0.19184   -0.19248   -0.19279   -0.19270   -0.19264   -0.19264   -0.19270   -0.19279   -0.19248   -0.19184 
  -0.19184   -0.19248   -0.19279   -0.19270   -0.19264   -0.19264   -0.19270   -0.19279   -0.19248   -0.19184 

  -0.19189   -0.19209   -0.19201   -0.19192   -0.19186   -0.19186   -0.19192   -0.19201   -0.19209   -0.19189 
  -0.19189   -0.19209   -0.19201   -0.19192   -0.19186   -0.19186   -0.19192   -0.19201   -0.19209   -0.19189 

  -0.19139   -0.19136   -0.19128   -0.19119   -0.19113   -0.19113   -0.19119   -0.19128   -0.19136   -0.19139 
  -0.19139   -0.19136   -0.19128   -0.19119   -0.19113   -0.19113   -0.19119   -0.19128   -0.19136   -0.19139 

  -0.19109   -0.19105   -0.19098   -0.19089   -0.19083   -0.19083   -0.19089   -0.19098   -0.19105   -0.19109 
  -0.19109   -0.19105   -0.19098   -0.19089   -0.19083   -0.19083   -0.19089   -0.19098   -0.19105   -0.19109 
BAND:  13
  -0.05110   -0.05103   -0.05084   -0.05062   -0.05047   -0.05047   -0.05062   -0.05084   -0.05103   -0.05110 
  -0.05110   -0.05103   -0.05084   -0.05062   -0.05047   -0.05047   -0.05062   -0.05084   -0.05103   -0.05110 

  -0.05014   -0.05007   -0.04988   -0.04968   -0.04954   -0.04954   -0.04968   -0.04988   -0.05007   -0.05014 
  -0.05014   -0.05007   -0.04988   -0.04968   -0.04954   -0.04954   -0.04968   -0.04988   -0.05007   -0.05014 

  -0.04771   -0.04764   -0.04748   -0.04729   -0.04717   -0.04717   -0.04729   -0.04748   -0.04764   -0.04771 
  -0.04771   -0.04764   -0.04748   -0.04729   -0.04717   -0.04717   -0.04729   -0.04748   -0.04764   -0.04771 

  -0.04494   -0.04489   -0.04474   -0.04458   -0.04447   -0.04447   -0.04458   -0.04474   -0.04489   -0.04494 
  -0.04494   -0.04489   -0.04474   -0.04458   -0.04447   -0.04447   -0.04458   -0.04474   -0.04489   -0.04494 

  -0.04314   -0.04309   -0.04296   -0.04281   -0.04271   -0.04271   -0.04281   -0.04296   -0.04309   -0.04314 
  -0.04314   -0.04309   -0.04296   -0.04281   -0.04271   -0.04271   -0.04281   -0.04296   -0.04309   -0.04314 

  -0.04314   -0.04309   -0.04296   -0.04281   -0.04271   -0.04271   -0.04281   -0.04296   -0.04309   -0.04314 
  -0.04314   -0.04309   -0.04296   -0.04281   -0.04271   -0.04271   -0.04281   -0.04296   -0.04309   -0.04314 

  -0.04494   -0.04489   -0.04474   -0.04458   -0.04447   -0.04447   -0.04458   -0.04474   -0.04489   -0.04494 
  -0.04494   -0.04489   -0.04474   -0.04458   -0.04447   -0.04447   -0.04458   -0.04474   -0.04489   -0.04494 

  -0.04771   -0.04764   -0.04748   -0.04729   -0.04717   -0.04717   -0.04729   -0.04748   -0.04764   -0.04771 
  -0.04771   -0.04764   -0.04748   -0.04729   -0.04717   -0.04717   -0.04729   -0.04748   -0.04764   -0.04771 

  -0.05014   -0.05007   -0.04988   -0.04968   -0.04954   -0.04954   -0.04968   -0.04988   -0.05007   -0.05014 
  -0.05014   -0.05007   -0.04988   -0.04968   -0.04954   -0.04954   -0.04968   -0.04988   -0.05007   -0.05014 

  -0.05110   -0.05103   -0.05084   -0.05062   -0.05047   -0.05047   -0.05062   -0.05084   -0.05103   -0.05110 
  -0.05110   -0.05103   -0.05084   -0.05062   -0.05047   -0.05047   -0.05062   -0.05084   -0.05103   -0.05110 
BAND:  14
  -0.03307   -0.03389   -0.03597   -0.03839   -0.03999   -0.03999   -0.03839   -0.03597   -0.03389   -0.03307 
  -0.03307   -0.03389   -0.03597   -0.03839   -0.03999   -0.03999   -0.03839   -0.03597   -0.03389   -0.03307 

  -0.03314   -0.03395   -0.03605   -0.03847   -0.04007   -0.04007   -0.03847   -0.03605   -0.03395   -0.03314 
  -0.03314   -0.03395   -0.03605   -0.03847   -0.04007   -0.04007   -0.03847   -0.03605   -0.03395   -0.03314 

  -0.03331   -0.03413   -0.03623   -0.03866   -0.04027   -0.04027   -0.03866   -0.03623   -0.03413   -0.03331 