BEGIN_INFO
Fermi Energy: -0.222001481820
END_INFO

BEGIN_BLOCK_BANDGRID_3D
comment_line
BEGIN_BANDGRID_3D_simple_example
52
10 2 10
0.0 0.0 0.0
   0.7388708257    0.0000000000    0.0000000000
   0.0000000000    0.1662459358    0.0000000000
   0.0000000000    0.0000000000    0.7388708257
BAND:  1
  -0.75295   -0.75292   -0.75284   -0.75275   -0.75269   -0.75269   -0.75275   -0.75284   -0.75292   -0.75295 
  -0.75295   -0.75292   -0.75284   -0.75275   -0.75269   -0.75269   -0.75275   -0.75284   -0.75292   -0.75295 

  -0.75072   -0.75069   -0.75061   -0.75052   -0.75046   -0.75046   -0.75052   -0.75061   -0.75069   -0.75072 
  -0.75072   -0.75069   -0.75061   -0.75052   -0.75046   -0.75046   -0.75052   -0.75061   -0.75069   -0.75072 

  -0.74412   -0.74409   -0.74401   -0.74392   -0.74386   -0.74386   -0.74392   -0.74401   -0.74409   -0.74412 
  -0.74412   -0.74409   -0.74401   -0.74392   -0.74386   -0.74386   -0.74392   -0.74401   -0.74409   -0.74412 

  -0.73347   -0.73344   -0.73336   -0.73328   -0.73322   -0.73322   -0.73328   -0.73336   -0.73344   -0.73347 
  -0.73347   -0.73344   -0.73336   -0.73328   -0.73322   -0.73322   -0.73328   -0.73336   -0.73344   -0.73347 

  -0.72025   -0.72023   -0.72015   -0.72007   -0.72002   -0.72002   -0.72007   -0.72015   -0.72023   -0.72025 
  -0.72025   -0.72023   -0.72015   -0.72007   -0.72002   -0.72002   -0.72007   -0.72015   -0.72023   -0.72025 

  -0.72026   -0.72023   -0.72015   -0.72007   -0.72002   -0.72002   -0.72007   -0.72015   -0.72023   -0.72026 
  -0.72026   -0.72023   -0.72015   -0.72007   -0.72002   -0.72002   -0.72007   -0.72015   -0.72023   -0.72026 

  -0.73347   -0.73344   -0.73336   -0.73328   -0.73322   -0.73322   -0.73328   -0.73336   -0.73344   -0.73347 
  -0.73347   -0.73344   -0.73336   -0.73328   -0.73322   -0.73322   -0.73328   -0.73336   -0.73344   -0.73347 

  -0.74412   -0.74409   -0.74401   -0.74392   -0.74386   -0.74386   -0.74392   -0.74401   -0.74409   -0.74412 
  -0.74412   -0.74409   -0.74401   -0.74392   -0.74386   -0.74386   -0.74392   -0.74401   -0.74409   -0.74412 

  -0.75072   -0.75069   -0.75061   -0.75052   -0.75046   -0.75046   -0.75052   -0.75061   -0.75069   -0.75072 
  -0.75072   -0.75069   -0.75061   -0.75052   -0.75046   -0.75046   -0.75052   -0.75061   -0.75069   -0.75072 

  -0.75295   -0.75292   -0.75284   -0.75275   -0.75269   -0.75269   -0.75275   -0.75284   -0.75292   -0.75295 
  -0.75295   -0.75292   -0.75284   -0.75275   -0.75269   -0.75269   -0.75275   -0.75284   -0.75292   -0.75295 
BAND:  2
  -0.63519   -0.63516   -0.63508   -0.63498   -0.63492   -0.63492   -0.63498   -0.63508   -0.63516   -0.63519 
  -0.63519   -0.63516   -0.63508   -0.63498   -0.63492   -0.63492   -0.63498   -0.63508   -0.63516   -0.63519 

  -0.64159   -0.64156   -0.64148   -0.64139   -0.64132   -0.64132   -0.64139   -0.64148   -0.64156   -0.64159 
  -0.64159   -0.64156   -0.64148   -0.64139   -0.64132   -0.64132   -0.64139   -0.64148   -0.64156   -0.64159 

  -0.65762   -0.65759   -0.65751   -0.65741   -0.65735   -0.65735   -0.65741   -0.65751   -0.65759   -0.65762 
  -0.65762   -0.65759   -0.65751   -0.65741   -0.65735   -0.65735   -0.65741   -0.65751   -0.65759   -0.65762 

  -0.67751   -0.67748   -0.67740   -0.67731   -0.67725   -0.67725   -0.67731   -0.67740   -0.67748   -0.67751 
  -0.67751   -0.67748   -0.67740   -0.67731   -0.67725   -0.67725   -0.67731   -0.67740   -0.67748   -0.67751 

  -0.69613   -0.69610   -0.69602   -0.69592   -0.69586   -0.69586   -0.69592   -0.69602   -0.69610   -0.69613 
  -0.69613   -0.69610   -0.69602   -0.69592   -0.69586   -0.69586   -0.69592   -0.69602   -0.69610   -0.69613 

  -0.69613   -0.69610   -0.69602   -0.69592   -0.69586   -0.69586   -0.69592   -0.69602   -0.69610   -0.69613 
  -0.69613   -0.69610   -0.69602   -0.69592   -0.69586   -0.69586   -0.69592   -0.69602   -0.69610   -0.69613 

  -0.67751   -0.67748   -0.67740   -0.67731   -0.67725   -0.67725   -0.67731   -0.67740   -0.67748   -0.67751 
  -0.67751   -0.67748   -0.67740   -0.67731   -0.67725   -0.67725   -0.67731   -0.67740   -0.67748   -0.67751 

  -0.65762   -0.65759   -0.65751   -0.65741   -0.65735   -0.65735   -0.65741   -0.65751   -0.65759   -0.65762 
  -0.65762   -0.65759   -0.65751   -0.65741   -0.65735   -0.65735   -0.65741   -0.65751   -0.65759   -0.65762 

  -0.64159   -0.64156   -0.64148   -0.64139   -0.64132   -0.64132   -0.64139   -0.64148   -0.64156   -0.64159 
  -0.64159   -0.64156   -0.64148   -0.64139   -0.64132   -0.64132   -0.64139   -0.64148   -0.64156   -0.64159 

  -0.63519   -0.63516   -0.63508   -0.63498   -0.63492   -0.63492   -0.63498   -0.63508   -0.63516   -0.63519 
  -0.63519   -0.63516   -0.63508   -0.63498   -0.63492   -0.63492   -0.63498   -0.63508   -0.63516   -0.63519 
BAND:  3
  -0.44030   -0.44021   -0.44000   -0.43976   -0.43959   -0.43959   -0.43976   -0.44000   -0.44021   -0.44030 
  -0.44030   -0.44021   -0.44000   -0.43976   -0.43959   -0.43959   -0.43976   -0.44000   -0.44021   -0.44030 

  -0.43789   -0.43781   -0.43759   -0.43734   -0.43718   -0.43718   -0.43734   -0.43759   -0.43781   -0.43789 
  -0.43789   -0.43781   -0.43759   -0.43734   -0.43718   -0.43718   -0.43734   -0.43759   -0.43781   -0.43789 

  -0.43070   -0.43061   -0.43039   -0.43014   -0.42998   -0.42998   -0.43014   -0.43039   -0.43061   -0.43070 
  -0.43070   -0.43061   -0.43039   -0.43014   -0.42998   -0.42998   -0.43014   -0.43039   -0.43061   -0.43070 

  -0.41886   -0.41877   -0.41855   -0.41830   -0.41814   -0.41814   -0.41830   -0.41855   -0.41877   -0.41886 
  -0.41886   -0.41877   -0.41855   -0.41830   -0.41814   -0.41814   -0.41830   -0.41855   -0.41877   -0.41886 

  -0.40302   -0.40293   -0.40271   -0.40245   -0.40229   -0.40229   -0.40245   -0.40271   -0.40293   -0.40302 
  -0.40302   -0.40293   -0.40271   -0.40245   -0.40229   -0.40229   -0.40245   -0.40271   -0.40293   -0.40302 

  -0.40302   -0.40293   -0.40271   -0.40245   -0.40229   -0.40229   -0.40245   -0.40271   -0.40293   -0.40302 
  -0.40302   -0.40293   -0.40271   -0.40245   -0.40229   -0.40229   -0.40245   -0.40271   -0.40293   -0.40302 

  -0.41886   -0.41877   -0.41855   -0.41830   -0.41814   -0.41814   -0.41830   -0.41855   -0.41877   -0.41886 
  -0.41886   -0.41877   -0.41855   -0.41830   -0.41814   -0.41814   -0.41830   -0.41855   -0.41877   -0.41886 

  -0.43070   -0.43061   -0.43039   -0.43015   -0.42998   -0.42998   -0.43015   -0.43039   -0.43061   -0.43070 
  -0.43070   -0.43061   -0.43039   -0.43015   -0.42998   -0.42998   -0.43015   -0.43039   -0.43061   -0.43070 

  -0.43789   -0.43781   -0.43759   -0.43734   -0.43718   -0.43718   -0.43734   -0.43759   -0.43781   -0.43789 
  -0.43789   -0.43781   -0.43759   -0.43734   -0.43718   -0.43718   -0.43734   -0.43759   -0.43781   -0.43789 

  -0.44030   -0.44021   -0.44000   -0.43976   -0.43959   -0.43959   -0.43976   -0.44000   -0.44021   -0.44030 
  -0.44030   -0.44021   -0.44000   -0.43976   -0.43959   -0.43959   -0.43976   -0.44000   -0.44021   -0.44030 
BAND:  4
  -0.41532   -0.41530   -0.41526   -0.41521   -0.41518   -0.41518   -0.41521   -0.41526   -0.41530   -0.41532 
  -0.41532   -0.41530   -0.41526   -0.41521   -0.41518   -0.41518   -0.41521   -0.41526   -0.41530   -0.41532 

  -0.40545   -0.40543   -0.40539   -0.40534   -0.40531   -0.40531   -0.40534   -0.40539   -0.40543   -0.40545 
  -0.40545   -0.40543   -0.40539   -0.40534   -0.40531   -0.40531   -0.40534   -0.40539   -0.40543   -0.40545 

  -0.37958   -0.37956   -0.37952   -0.37947   -0.37944   -0.37944   -0.37947   -0.37952   -0.37956   -0.37958 
  -0.37958   -0.37956   -0.37952   -0.37947   -0.37944   -0.37944   -0.37947   -0.37952   -0.37956   -0.37958 

  -0.35645   -0.35636   -0.35613   -0.35587   -0.35570   -0.35570   -0.35587   -0.35613   -0.35636   -0.35645 
  -0.35645   -0.35636   -0.35613   -0.35587   -0.35570   -0.35570   -0.35587   -0.35613   -0.35636   -0.35645 

  -0.38009   -0.38001   -0.37978   -0.37953   -0.37937   -0.37937   -0.37953   -0.37978   -0.38001   -0.38009 
  -0.38009   -0.38001   -0.37978   -0.37953   -0.37937   -0.37937   -0.37953   -0.37978   -0.38001   -0.38009 

  -0.38009   -0.38000   -0.37978   -0.37953   -0.37937   -0.37937   -0.37953   -0.37978   -0.38000   -0.38009 
  -0.38009   -0.38000   -0.37978   -0.37953   -0.37937   -0.37937   -0.37953   -0.37978   -0.38000   -0.38009 

  -0.35645   -0.35636   -0.35613   -0.35587   -0.35570   -0.35570   -0.35587   -0.35613   -0.35636   -0.35645 
  -0.35645   -0.35636   -0.35613   -0.35587   -0.35570   -0.35570   -0.35587   -0.35613   -0.35636   -0.35645 

  -0.37958   -0.37957   -0.37952   -0.37947   -0.37944   -0.37944   -0.37947   -0.37952   -0.37957   -0.37958 
  -0.37958   -0.37957   -0.37952   -0.37947   -0.37944   -0.37944   -0.37947   -0.37952   -0.37957   -0.37958 

  -0.40545   -0.40543   -0.40539   -0.40534   -0.40531   -0.40531   -0.40534   -0.40539   -0.40543   -0.40545 
  -0.40545   -0.40543   -0.40539   -0.40534   -0.40531   -0.40531   -0.40534   -0.40539   -0.40543   -0.40545 

  -0.41532   -0.41530   -0.41526   -0.41521   -0.41518   -0.41518   -0.41521   -0.41526   -0.41530   -0.41532 
  -0.41532   -0.41530   -0.41526   -0.41521   -0.41518   -0.41518   -0.41521   -0.41526   -0.41530   -0.41532 
BAND:  5
  -0.31060   -0.31127   -0.31285   -0.31458   -0.31569   -0.31569   -0.31458   -0.31285   -0.31127   -0.31060 
  -0.31060   -0.31127   -0.31285   -0.31458   -0.31569   -0.31569   -0.31458   -0.31285   -0.31127   -0.31060 

  -0.30845   -0.30913   -0.31073   -0.31245   -0.31355   -0.31355   -0.31245   -0.31073   -0.30913   -0.30845 
  -0.30845   -0.30913   -0.31073   -0.31245   -0.31355   -0.31355   -0.31245   -0.31073   -0.30913   -0.30845 

  -0.33016   -0.33006   -0.32982   -0.32953   -0.32935   -0.32935   -0.32953   -0.32982   -0.33006   -0.33016 
  -0.33016   -0.33006   -0.32982   -0.32953   -0.32935   -0.32935   -0.32953   -0.32982   -0.33006   -0.33016 

  -0.34581   -0.34579   -0.34574   -0.34568   -0.34565   -0.34565   -0.34568   -0.34574   -0.34579   -0.34581 
  -0.34581   -0.34579   -0.34574   -0.34568   -0.34565   -0.34565   -0.34568   -0.34574   -0.34579   -0.34581 

  -0.31526   -0.31523   -0.31514   -0.31504   -0.31498   -0.31498   -0.31504   -0.31514   -0.31523   -0.31526 
  -0.31526   -0.31523   -0.31514   -0.31504   -0.31498   -0.31498   -0.31504   -0.31514   -0.31523   -0.31526 

  -0.31526   -0.31523   -0.31514   -0.31504   -0.31498   -0.31498   -0.31504   -0.31514   -0.31523   -0.31526 
  -0.31526   -0.31523   -0.31514   -0.31504   -0.31498   -0.31498   -0.31504   -0.31514   -0.31523   -0.31526 

  -0.34581   -0.34579   -0.34574   -0.34568   -0.34565   -0.34565   -0.34568   -0.34574   -0.34579   -0.34581 
  -0.34581   -0.34579   -0.34574   -0.34568   -0.34565   -0.34565   -0.34568   -0.34574   -0.34579   -0.34581 

  -0.33016   -0.33006   -0.32982   -0.32953   -0.32935   -0.32935   -0.32953   -0.32982   -0.33006   -0.33016 
  -0.33016   -0.33006   -0.32982   -0.32953   -0.32935   -0.32935   -0.32953   -0.32982   -0.33006   -0.33016 

  -0.30845   -0.30913   -0.31073   -0.31245   -0.31355   -0.31355   -0.31245   -0.31073   -0.30913   -0.30845 
  -0.30845   -0.30913   -0.31073   -0.31245   -0.31355   -0.31355   -0.31245   -0.31073   -0.30913   -0.30845 

  -0.31060   -0.31127   -0.31285   -0.31458   -0.31569   -0.31569   -0.31458   -0.31285   -0.31127   -0.31060 
  -0.31060   -0.31127   -0.31285   -0.31458   -0.31569   -0.31569   -0.31458   -0.31285   -0.31127   -0.31060 
BAND:  6
  -0.30619   -0.30603   -0.30576   -0.30555   -0.30543   -0.30543   -0.30555   -0.30576   -0.30603   -0.30619 
  -0.30619   -0.30603   -0.30576   -0.30555   -0.30543   -0.30543   -0.30555   -0.30576   -0.30603   -0.30619 

  -0.30574   -0.30563   -0.30536   -0.30505   -0.30484   -0.30484   -0.30505   -0.30536   -0.30563   -0.30574 
  -0.30574   -0.30563   -0.30536   -0.30505   -0.30484   -0.30484   -0.30505   -0.30536   -0.30563   -0.30574 

  -0.30211   -0.30301   -0.30455   -0.30620   -0.30726   -0.30726   -0.30620   -0.30455   -0.30301   -0.30211 
  -0.30211   -0.30301   -0.30455   -0.30620   -0.30726   -0.30726   -0.30620   -0.30455   -0.30301   -0.30211 

  -0.29857   -0.29854   -0.29845   -0.29829   -0.29800   -0.29800   -0.29829   -0.29845   -0.29854   -0.29857 
  -0.29857   -0.29854   -0.29845   -0.29829   -0.29800   -0.29800   -0.29829   -0.29845   -0.29854   -0.29857 

  -0.29940   -0.29935   -0.29922   -0.29904   -0.29891   -0.29891   -0.29904   -0.29922   -0.29935   -0.29940 
  -0.29940   -0.29935   -0.29922   -0.29904   -0.29891   -0.29891   -0.29904   -0.29922   -0.29935   -0.29940 

  -0.29940   -0.29935   -0.29922   -0.29904   -0.29891   -0.29891   -0.29904   -0.29922   -0.29935   -0.29940 
  -0.29940   -0.29935   -0.29922   -0.29904   -0.29891   -0.29891   -0.29904   -0.29922   -0.29935   -0.29940 

  -0.29857   -0.29854   -0.29845   -0.29829   -0.29800   -0.29800   -0.29829   -0.29845   -0.29854   -0.29857 
  -0.29857   -0.29854   -0.29845   -0.29829   -0.29800   -0.29800   -0.29829   -0.29845   -0.29854   -0.29857 

  -0.30211   -0.30301   -0.30455   -0.30620   -0.30726   -0.30726   -0.30620   -0.30455   -0.30301   -0.30211 
  -0.30211   -0.30301   -0.30455   -0.30620   -0.30726   -0.30726   -0.30620   -0.30455   -0.30301   -0.30211 

  -0.30574   -0.30563   -0.30536   -0.30504   -0.30484   -0.30484   -0.30504   -0.30536   -0.30563   -0.30574 
  -0.30574   -0.30563   -0.30536   -0.30504   -0.30484   -0.30484   -0.30504   -0.30536   -0.30563   -0.30574 

  -0.30619   -0.30603   -0.30576   -0.30555   -0.30543   -0.30543   -0.30555   -0.30576   -0.30603   -0.30619 
  -0.30619   -0.30603   -0.30576   -0.30555   -0.30543   -0.30543   -0.30555   -0.30576   -0.30603   -0.30619 
BAND:  7
  -0.29416   -0.29404   -0.29375   -0.29341   -0.29318   -0.29318   -0.29341   -0.29375   -0.29404   -0.29416 
  -0.29416   -0.29404   -0.29375   -0.29341   -0.29318   -0.29318   -0.29341   -0.29375   -0.29404   -0.29416 

  -0.30502   -0.30485   -0.30458   -0.30437   -0.30426   -0.30426   -0.30437   -0.30458   -0.30485   -0.30502 
  -0.30502   -0.30485   -0.30458   -0.30437   -0.30426   -0.30426   -0.30437   -0.30458   -0.30485   -0.30502 

  -0.30195   -0.30158   -0.30137   -0.30126   -0.30120   -0.30120   -0.30126   -0.30137   -0.30158   -0.30195 
  -0.30195   -0.30158   -0.30137   -0.30126   -0.30120   -0.30120   -0.30126   -0.30137   -0.30158   -0.30195 

  -0.29199   -0.29256   -0.29402   -0.29575   -0.29706   -0.29706   -0.29575   -0.29402   -0.29256   -0.29199 
  -0.29199   -0.29256   -0.29402   -0.29575   -0.29706   -0.29706   -0.29575   -0.29402   -0.29256   -0.29199 

  -0.27917   -0.27978   -0.28134   -0.28313   -0.28433   -0.28433   -0.28313   -0.28134   -0.27978   -0.27917 
  -0.27917   -0.27978   -0.28134   -0.28313   -0.28433   -0.28433   -0.28313   -0.28134   -0.27978   -0.27917 

  -0.27917   -0.27978   -0.28134   -0.28314   -0.28433   -0.28433   -0.28313   -0.28134   -0.27978   -0.27917 
  -0.27917   -0.27978   -0.28134   -0.28314   -0.28433   -0.28433   -0.28313   -0.28134   -0.27978   -0.27917 

  -0.29199   -0.29256   -0.29402   -0.29575   -0.29706   -0.29706   -0.29575   -0.29402   -0.29256   -0.29199 
  -0.29199   -0.29256   -0.29402   -0.29575   -0.29706   -0.29706   -0.29575   -0.29402   -0.29256   -0.29199 

  -0.30195   -0.30158   -0.30137   -0.30126   -0.30120   -0.30120   -0.30126   -0.30137   -0.30158   -0.30195 
  -0.30195   -0.30158   -0.30137   -0.30126   -0.30120   -0.30120   -0.30126   -0.30137   -0.30158   -0.30195 

  -0.30502   -0.30485   -0.30458   -0.30437   -0.30426   -0.30426   -0.30437   -0.30458   -0.30485   -0.30502 
  -0.30502   -0.30485   -0.30458   -0.30437   -0.30426   -0.30426   -0.30437   -0.30458   -0.30485   -0.30502 

  -0.29416   -0.29404   -0.29375   -0.29341   -0.29318   -0.29318   -0.29341   -0.29375   -0.29404   -0.29416 
  -0.29416   -0.29404   -0.29375   -0.29341   -0.29318   -0.29318   -0.29341   -0.29375   -0.29404   -0.29416 
BAND:  8
  -0.21878   -0.21942   -0.22093   -0.22257   -0.22361   -0.22361   -0.22257   -0.22093   -0.21942   -0.21878 
  -0.21878   -0.21942   -0.22093   -0.22257   -0.22361   -0.22361   -0.22257   -0.22093   -0.21942   -0.21878 

  -0.22235   -0.22298   -0.22451   -0.22617   -0.22724   -0.22724   -0.22617   -0.22451   -0.22298   -0.22235 
  -0.22235   -0.22298   -0.22451   -0.22617   -0.22724   -0.22724   -0.22617   -0.22451   -0.22298   -0.22235 

  -0.23224   -0.23286   -0.23442   -0.23614   -0.23725   -0.23725   -0.23614   -0.23442   -0.23286   -0.23224 
  -0.23224   -0.23286   -0.23442   -0.23614   -0.23725   -0.23725   -0.23614   -0.23442   -0.23286   -0.23224 

  -0.24630   -0.24694   -0.24853   -0.25031   -0.25147   -0.25147   -0.25031   -0.24853   -0.24694   -0.24630 
  -0.24630   -0.24694   -0.24853   -0.25031   -0.25147   -0.25147   -0.25031   -0.24853   -0.24694   -0.24630 

  -0.26165   -0.26229   -0.26391   -0.26575   -0.26695   -0.26695   -0.26575   -0.26391   -0.26229   -0.26165 
  -0.26165   -0.26229   -0.26391   -0.26575   -0.26695   -0.26695   -0.26575   -0.26391   -0.26229   -0.26165 

  -0.26165   -0.26229   -0.26391   -0.26575   -0.26694   -0.26694   -0.26575   -0.26391   -0.26229   -0.26165 
  -0.26165   -0.26229   -0.26391   -0.26575   -0.26694   -0.26694   -0.26575   -0.26391   -0.26229   -0.26165 

  -0.24630   -0.24694   -0.24852   -0.25031   -0.25147   -0.25147   -0.25031   -0.24852   -0.24694   -0.24630 
  -0.24630   -0.24694   -0.24852   -0.25031   -0.25147   -0.25147   -0.25031   -0.24852   -0.24694   -0.24630 

  -0.23224   -0.23286   -0.23442   -0.23614   -0.23725   -0.23725   -0.23614   -0.23442   -0.23286   -0.23224 
  -0.23224   -0.23286   -0.23442   -0.23614   -0.23725   -0.23725   -0.23614   -0.23442   -0.23286   -0.23224 

  -0.22235   -0.22298   -0.22451   -0.22617   -0.22724   -0.22724   -0.22617   -0.22451   -0.22298   -0.22235 
  -0.22235   -0.22298   -0.22451   -0.22617   -0.22724   -0.22724   -0.22617   -0.22451   -0.22298   -0.22235 

  -0.21878   -0.21942   -0.22093   -0.22257   -0.22361   -0.22361   -0.22257   -0.22093   -0.21942   -0.21878 
  -0.21878   -0.21942   -0.22093   -0.22257   -0.22361   -0.22361   -0.22257   -0.22093   -0.21942   -0.21878 
BAND:  9
  -0.21176   -0.21154   -0.21111   -0.21074   -0.21053   -0.21053   -0.21074   -0.21111   -0.21154   -0.21176 
  -0.21176   -0.21154   -0.21111   -0.21074   -0.21053   -0.21053   -0.21074   -0.21111   -0.21154   -0.21176 

  -0.21360   -0.21340   -0.21298   -0.21259   -0.21238   -0.21238   -0.21259   -0.21298   -0.21340   -0.21360 
  -0.21360   -0.21340   -0.21298   -0.21259   -0.21238   -0.21238   -0.21259   -0.21298   -0.21340   -0.21360 

  -0.21816   -0.21798   -0.21758   -0.21719   -0.21696   -0.21696   -0.21719   -0.21758   -0.21798   -0.21816 
  -0.21816   -0.21798   -0.21758   -0.21719   -0.21696   -0.21696   -0.21719   -0.21758   -0.21798   -0.21816 

  -0.22218   -0.22202   -0.22165   -0.22126   -0.22103   -0.22103   -0.22126   -0.22165   -0.22202   -0.22218 
  -0.22218   -0.22202   -0.22165   -0.22126   -0.22103   -0.22103   -0.22126   -0.22165   -0.22202   -0.22218 

  -0.21869   -0.21856   -0.21825   -0.21791   -0.21770   -0.21770   -0.21791   -0.21825   -0.21856   -0.21869 
  -0.21869   -0.21856   -0.21825   -0.21791   -0.21770   -0.21770   -0.21791   -0.21825   -0.21856   -0.21869 

  -0.21869   -0.21856   -0.21825   -0.21791   -0.21770   -0.21770   -0.21791   -0.21825   -0.21856   -0.21869 
  -0.21869   -0.21856   -0.21825   -0.21791   -0.21770   -0.21770   -0.21791   -0.21825   -0.21856   -0.21869 

  -0.22218   -0.22202   -0.22165   -0.22126   -0.22103   -0.22103   -0.22126   -0.22165   -0.22202   -0.22218 
  -0.22218   -0.22202   -0.22165   -0.22126   -0.22103   -0.22103   -0.22126   -0.22165   -0.22202   -0.22218 

  -0.21816   -0.21798   -0.21758   -0.21719   -0.21696   -0.21696   -0.21719   -0.21758   -0.21798   -0.21816 
  -0.21816   -0.21798   -0.21758   -0.21719   -0.21696   -0.21696   -0.21719   -0.21758   -0.21798   -0.21816 

  -0.21360   -0.21340   -0.21298   -0.21259   -0.21238   -0.21238   -0.21259   -0.21298   -0.21340   -0.21360 
  -0.21360   -0.21340   -0.21298   -0.21259   -0.21238   -0.21238   -0.21259   -0.21298   -0.21340   -0.21360 

  -0.21176   -0.21154   -0.21111   -0.21074   -0.21053   -0.21053   -0.21074   -0.21111   -0.21154   -0.21176 
  -0.21176   -0.21154   -0.21111   -0.21074   -0.21053   -0.21053   -0.21074   -0.21111   -0.21154   -0.21176 
BAND:  10
  -0.17495   -0.17491   -0.17482   -0.17471   -0.17464   -0.17464   -0.17471   -0.17482   -0.17491   -0.17495 
  -0.17495   -0.17491   -0.17482   -0.17471   -0.17464   -0.17464   -0.17471   -0.17482   -0.17491   -0.17495 

  -0.15970   -0.15966   -0.15954   -0.15940   -0.15932   -0.15932   -0.15940   -0.15954   -0.15966   -0.15970 
  -0.15970   -0.15966   -0.15954   -0.15940   -0.15932   -0.15932   -0.15940   -0.15954   -0.15966   -0.15970 

  -0.12442   -0.12436   -0.12422   -0.12405   -0.12394   -0.12394   -0.12405   -0.12422   -0.12436   -0.12442 
  -0.12442   -0.12436   -0.12422   -0.12405   -0.12394   -0.12394   -0.12405   -0.12422   -0.12436   -0.12442 

  -0.15294   -0.15288   -0.15271   -0.15253   -0.15241   -0.15241   -0.15253   -0.15271   -0.15288   -0.15294 
  -0.15294   -0.15288   -0.15271   -0.15253   -0.15241   -0.15241   -0.15253   -0.15271   -0.15288   -0.15294 

  -0.19062   -0.19052   -0.19028   -0.19001   -0.18984   -0.18984   -0.19001   -0.19028   -0.19052   -0.19062 
  -0.19062   -0.19052   -0.19028   -0.19001   -0.18984   -0.18984   -0.19001   -0.19028   -0.19052   -0.19062 

  -0.19062   -0.19052   -0.19028   -0.19001   -0.18984   -0.18984   -0.19001   -0.19028   -0.19052   -0.19062 
  -0.19062   -0.19052   -0.19028   -0.19001   -0.18984   -0.18984   -0.19001   -0.19028   -0.19052   -0.19062 

  -0.15294   -0.15288   -0.15271   -0.15253   -0.15241   -0.15241   -0.15253   -0.15271   -0.15288   -0.15294 
  -0.15294   -0.15288   -0.15271   -0.15253   -0.15241   -0.15241   -0.15253   -0.15271   -0.15288   -0.15294 

  -0.12442   -0.12436   -0.12422   -0.12405   -0.12394   -0.12394   -0.12405   -0.12422   -0.12436   -0.12442 
  -0.12442   -0.12436   -0.12422   -0.12405   -0.12394   -0.12394   -0.12405   -0.12422   -0.12436   -0.12442 

  -0.15970   -0.15966   -0.15954   -0.15940   -0.15932   -0.15932   -0.15940   -0.15954   -0.15966   -0.15970 
  -0.15970   -0.15966   -0.15954   -0.15940   -0.15932   -0.15932   -0.15940   -0.15954   -0.15966   -0.15970 

  -0.17495   -0.17491   -0.17482   -0.17471   -0.17464   -0.17464   -0.17471   -0.17482   -0.17491   -0.17495 
  -0.17495   -0.17491   -0.17482   -0.17471   -0.17464   -0.17464   -0.17471   -0.17482   -0.17491   -0.17495 
BAND:  11
  -0.07986   -0.08074   -0.08296   -0.08551   -0.08717   -0.08717   -0.08551   -0.08296   -0.08074   -0.07986 
  -0.07986   -0.08074   -0.08296   -0.08551   -0.08717   -0.08717   -0.08551   -0.08296   -0.08074   -0.07986 

  -0.08265   -0.08261   -0.08252   -0.08349   -0.08516   -0.08516   -0.08349   -0.08252   -0.08261   -0.08265 
  -0.08265   -0.08261   -0.08252   -0.08349   -0.08516   -0.08516   -0.08349   -0.08252   -0.08261   -0.08265 

  -0.11294   -0.11290   -0.11277   -0.11264   -0.11255   -0.11255   -0.11264   -0.11277   -0.11290   -0.11294 
  -0.11294   -0.11290   -0.11277   -0.11264   -0.11255   -0.11255   -0.11264   -0.11277   -0.11290   -0.11294 

  -0.08056   -0.08050   -0.08034   -0.08015   -0.08003   -0.08003   -0.08015   -0.08034   -0.08050   -0.08056 
  -0.08056   -0.08050   -0.08034   -0.08015   -0.08003   -0.08003   -0.08015   -0.08034   -0.08050   -0.08056 

  -0.05273   -0.05361   -0.05585   -0.05837   -0.06001   -0.06001   -0.05837   -0.05585   -0.05361   -0.05273 
  -0.05273   -0.05361   -0.05585   -0.05837   -0.06001   -0.06001   -0.05837   -0.05585   -0.05361   -0.05273 

  -0.05273   -0.05361   -0.05585   -0.05837   -0.06001   -0.06001   -0.05837   -0.05585   -0.05361   -0.05273 
  -0.05273   -0.05361   -0.05585   -0.05837   -0.06001   -0.06001   -0.05837   -0.05585   -0.05361   -0.05273 

  -0.08056   -0.08050   -0.08034   -0.08015   -0.08003   -0.08003   -0.08015   -0.08034   -0.08050   -0.08056 
  -0.08056   -0.08050   -0.08034   -0.08015   -0.08003   -0.08003   -0.08015   -0.08034   -0.08050   -0.08056 

  -0.11294   -0.11289   -0.11277   -0.11264   -0.11255   -0.11255   -0.11264   -0.11277   -0.11289   -0.11294 
  -0.11294   -0.11289   -0.11277   -0.11264   -0.11255   -0.11255   -0.11264   -0.11277   -0.11289   -0.11294 

  -0.08265   -0.08261   -0.08252   -0.08349   -0.08516   -0.08516   -0.08349   -0.08252   -0.08261   -0.08265 
  -0.08265   -0.08261   -0.08252   -0.08349   -0.08516   -0.08516   -0.08349   -0.08252   -0.08261   -0.08265 

  -0.07986   -0.08074   -0.08296   -0.08551   -0.08717   -0.08717   -0.08551   -0.08296   -0.08074   -0.07986 
  -0.07986   -0.08074   -0.08296   -0.08551   -0.08717   -0.08717   -0.08551   -0.08296   -0.08074   -0.07986 
BAND:  12
  -0.07122   -0.07119   -0.07110   -0.07100   -0.07094   -0.07094   -0.07100   -0.07110   -0.07119   -0.07122 
  -0.07122   -0.07119   -0.07110   -0.07100   -0.07094   -0.07094   -0.07100   -0.07110   -0.07119   -0.07122 

  -0.07783   -0.07871   -0.08095   -0.08241   -0.08234   -0.08234   -0.08241   -0.08095   -0.07871   -0.07783 
  -0.07783   -0.07871   -0.08095   -0.08241   -0.08234   -0.08234   -0.08241   -0.08095   -0.07871   -0.07783 

  -0.07191   -0.07280   -0.07505   -0.07760   -0.07927   -0.07927   -0.07760   -0.07505   -0.07280   -0.07191 
  -0.07191   -0.07280   -0.07505   -0.07760   -0.07927   -0.07927   -0.07760   -0.07505   -0.07280   -0.07191 

  -0.06273   -0.06363   -0.06589   -0.06844   -0.07011   -0.07011   -0.06844   -0.06589   -0.06363   -0.06273 
  -0.06273   -0.06363   -0.06589   -0.06844   -0.07011   -0.07011   -0.06844   -0.06589   -0.06363   -0.06273 

  -0.03372   -0.03368   -0.03359   -0.03353   -0.03402   -0.03402   -0.03353   -0.03359   -0.03368   -0.03372 
  -0.03372   -0.03368   -0.03359   -0.03353   -0.03402   -0.03402   -0.03353   -0.03359   -0.03368   -0.03372 

  -0.03372   -0.03368   -0.03359   -0.03353   -0.03402   -0.03402   -0.03353   -0.03359   -0.03368   -0.03372 
  -0.03372   -0.03368   -0.03359   -0.03353   -0.03402   -0.03402   -0.03353   -0.03359   -0.03368   -0.03372 

  -0.06273   -0.06363   -0.06589   -0.06845   -0.07011   -0.07011   -0.06845   -0.06589   -0.06363   -0.06273 
  -0.06273   -0.06363   -0.06589   -0.06845   -0.07011   -0.07011   -0.06845   -0.06589   -0.06363   -0.06273 

  -0.07191   -0.07280   -0.07505   -0.07760   -0.07927   -0.07927   -0.07760   -0.07505   -0.07280   -0.07191 
  -0.07191   -0.07280   -0.07505   -0.07760   -0.07927   -0.07927   -0.07760   -0.07505   -0.07280   -0.07191 

  -0.07783   -0.07871   -0.08095   -0.08241   -0.08234   -0.08234   -0.08241   -0.08095   -0.07871   -0.07783 
  -0.07783   -0.07871   -0.08095   -0.08241   -0.08234   -0.08234   -0.08241   -0.08095   -0.07871   -0.07783 

  -0.07122   -0.07119   -0.07110   -0.07100   -0.07094   -0.07094   -0.07100   -0.07110   -0.07119   -0.07122 
  -0.07122   -0.07119   -0.07110   -0.07100   -0.07094   -0.07094   -0.07100   -0.07110   -0.07119   -0.07122 
BAND:  13
   0.01075    0.00999    0.00805    0.00581    0.00434    0.00434    0.00581    0.00805    0.00999    0.01075 
   0.01075    0.00999    0.00805    0.00581    0.00434    0.00434    0.00581    0.00805    0.00999    0.01075 

   0.00751    0.00673    0.00475    0.00247    0.00097    0.00097    0.00247    0.00475    0.00673    0.00751 
   0.00751    0.00673    0.00475    0.00247    0.00097    0.00097    0.00247    0.00475    0.00673    0.00751 

  -0.00149   -0.00231   -0.00439   -0.00677   -0.00834   -0.00834   -0.00677   -0.00439   -0.00231   -0.00149 
  -0.00149   -0.00231   -0.00439   -0.00677   -0.00834   -0.00834   -0.00677   -0.00439   -0.00231   -0.00149 

  -0.01415   -0.01501   -0.01721   -0.01972   -0.02136   -0.02136   -0.01972   -0.01721   -0.01501   -0.01415 
  -0.01415   -0.01501   -0.01721   -0.01972   -0.02136   -0.02136   -0.01972   -0.01721   -0.01501   -0.01415 

  -0.02643   -0.02731   -0.02954   -0.03203   -0.03313   -0.03313   -0.03203   -0.02954   -0.02731   -0.02643 
  -0.02643   -0.02731   -0.02954   -0.03203   -0.03313   -0.03313   -0.03203   -0.02954   -0.02731   -0.02643 

  -0.02643   -0.02731   -0.02954   -0.03203   -0.03313   -0.03313   -0.03203   -0.02954   -0.02731   -0.02643 
  -0.02643   -0.02731   -0.02954   -0.03203   -0.03313   -0.03313   -0.03203   -0.02954   -0.02731   -0.02643 

  -0.01415   -0.01501   -0.01721   -0.01972   -0.02136   -0.02136   -0.01972   -0.01721   -0.01501   -0.01415 
  -0.01415   -0.01501   -0.01721   -0.01972   -0.02136   -0.02136   -0.01972   -0.01721   -0.01501   -0.01415 

  -0.00149   -0.00231   -0.00439   -0.00677   -0.00834   -0.00834   -0.00677   -0.00439   -0.00231   -0.00149 
  -0.00149   -0.00231   -0.00439   -0.00677   -0.00834   -0.00834   -0.00677   -0.00439   -0.00231   -0.00149 

   0.00751    0.00673    0.00475    0.00247    0.00097    0.00097    0.00247    0.00475    0.00673    0.00751 
   0.00751    0.00673    0.00475    0.00247    0.00097    0.00097    0.00247    0.00475    0.00673    0.00751 

   0.01075    0.00999    0.00805    0.00581    0.00434    0.00434    0.00581    0.00805    0.00999    0.01075 
   0.01075    0.00999    0.00805    0.00581    0.00434    0.00434    0.00581    0.00805    0.00999    0.01075 
BAND:  14
   0.14444    0.14446    0.14452    0.14458    0.14462    0.14462    0.14458    0.14452    0.14446    0.14444 
   0.14444    0.14446    0.14452    0.14458    0.14462    0.14462    0.14458    0.14452    0.14446    0.14444 

   0.13345    0.13348    0.13355    0.13362    0.13367    0.13367    0.13362    0.13355    0.13348    0.13345 
   0.13345    0.13348    0.13355    0.13362    0.13367    0.13367    0.13362    0.13355    0.13348    0.13345 

   0.10421    0.10425    0.10434    0.10445    0.10451    0.10451    0.10445    0.10434    0.10425    0.10421 