
The number of threads in each node for OpenMP parallelization is 1.


*******************************************************
*******************************************************
 Welcome to OpenMX   Ver. 3.8.5                           
 Copyright (C), 2002-2014, T. Ozaki                    
 OpenMX comes with ABSOLUTELY NO WARRANTY.             
 This is free software, and you are welcome to         
 redistribute it under the constitution of the GNU-GPL.
*******************************************************
*******************************************************

Automatic determination of Kerker_factor:   7.197945668825


<Input_std>  Your input file was normally read.
<Input_std>  The system includes 1 species and 4 atoms.

*******************************************************
                     PAO and VPS                       
*******************************************************

<SetPara_DFT>  PAOs of species C were normally found.
<SetPara_DFT>  VPSs of species C were normally found.
               C_CA13.vps is j-dependent.
               In case of scf.SpinOrbit.Coupling=off,
               j-dependent pseudo potentials are averaged by j-degeneracy,
               which corresponds to a scalar relativistic treatment.

*******************************************************
     Fourier transform of PAO and projectors of VNL    
*******************************************************

<FT_PAO>          Fourier transform of pseudo atomic orbitals
<FT_NLP>          Fourier transform of non-local projectors
<FT_ProExpn_VNA>  Fourier transform of VNA separable projectors
<FT_VNA>          Fourier transform of VNA potentials
<FT_ProductPAO>   Fourier transform of product of PAOs

*******************************************************
  Allocation of atoms to proccesors at MD_iter=    1     
*******************************************************

 proc =   0  # of atoms=   1  estimated weight=         1.00000
 proc =   1  # of atoms=   1  estimated weight=         1.00000
 proc =   2  # of atoms=   1  estimated weight=         1.00000
 proc =   3  # of atoms=   1  estimated weight=         1.00000
 proc =   4  # of atoms=   0  estimated weight=         0.00000
 proc =   5  # of atoms=   0  estimated weight=         0.00000
 proc =   6  # of atoms=   0  estimated weight=         0.00000




*******************************************************
        Analysis of neighbors and setting of grids        
*******************************************************

TFNAN=      60   Average FNAN=  15.00000
TSNAN=       0   Average SNAN=   0.00000
<truncation> CpyCell= 1 ct_AN=   1 FNAN SNAN  13   0
<truncation> CpyCell= 1 ct_AN=   2 FNAN SNAN  17   0
<truncation> CpyCell= 1 ct_AN=   3 FNAN SNAN  17   0
<truncation> CpyCell= 1 ct_AN=   4 FNAN SNAN  13   0
TFNAN=      60   Average FNAN=  15.00000
TSNAN=       0   Average SNAN=   0.00000
<truncation> CpyCell= 2 ct_AN=   1 FNAN SNAN  13   0
<truncation> CpyCell= 2 ct_AN=   2 FNAN SNAN  17   0
<truncation> CpyCell= 2 ct_AN=   3 FNAN SNAN  17   0
<truncation> CpyCell= 2 ct_AN=   4 FNAN SNAN  13   0
TFNAN=      60   Average FNAN=  15.00000
TSNAN=       0   Average SNAN=   0.00000
<truncation> CpyCell= 2 ct_AN=   1 FNAN SNAN  13   0
<truncation> CpyCell= 2 ct_AN=   2 FNAN SNAN  17   0
<truncation> CpyCell= 2 ct_AN=   3 FNAN SNAN  17   0
<truncation> CpyCell= 2 ct_AN=   4 FNAN SNAN  13   0
<Check_System> The system is slab.
lattice vectors (bohr)
A  =  8.503766948605,  0.000000000000,  0.000000000000
B  =  0.000000000000, 37.794519771578,  0.000000000000
C  =  0.000000000000,  0.000000000000,  8.503766948605
reciprocal lattice vectors (bohr^-1)
RA =  0.738870825736,  0.000000000000,  0.000000000000
RB =  0.000000000000,  0.166245935791,  0.000000000000
RC =  0.000000000000,  0.000000000000,  0.738870825736
Grid_Origin -2.007833862865 -13.871102015080 -4.133775600016
Cell_Volume =   2733.074880027181 (Bohr^3)
GridVol     =      0.013017617741 (Bohr^3)
Grid_Origin -2.007833862865 -13.871102015080 -4.133775600016
Cell_Volume =   2733.074880027181 (Bohr^3)
GridVol     =      0.013017617741 (Bohr^3)
<UCell_Box> Info. of cutoff energy and num. of grids
lattice vectors (bohr)
A  =  8.503766948605,  0.000000000000,  0.000000000000
B  =  0.000000000000, 37.794519771578,  0.000000000000
C  =  0.000000000000,  0.000000000000,  8.503766948605
reciprocal lattice vectors (bohr^-1)
RA =  0.738870825736,  0.000000000000,  0.000000000000
RB =  0.000000000000,  0.166245935791,  0.000000000000
RC =  0.000000000000,  0.000000000000,  0.738870825736
Required cutoff energy (Ryd) for 3D-grids = 180.0000
    Used cutoff energy (Ryd) for 3D-grids = 176.8814, 181.3310, 176.8814
Num. of grids of a-, b-, and c-axes = 36, 162, 36
Grid_Origin -2.007833862865 -13.871102015080 -4.133775600016
Cell_Volume =   2733.074880027181 (Bohr^3)
GridVol     =      0.013017617741 (Bohr^3)
Cell vectors (bohr) of the grid cell (gtv)
  gtv_a =  0.236215748572,  0.000000000000,  0.000000000000
  gtv_b =  0.000000000000,  0.233299504763,  0.000000000000
  gtv_c =  0.000000000000,  0.000000000000,  0.236215748572
  |gtv_a| =  0.236215748572
  |gtv_b| =  0.233299504763
  |gtv_c| =  0.236215748572
Num. of grids overlapping with atom    1 = 40152
Num. of grids overlapping with atom    2 = 40316
Num. of grids overlapping with atom    3 = 40316
Num. of grids overlapping with atom    4 = 40152

*******************************************************
             SCF calculation at MD = 1                
*******************************************************

<MD= 1>  Calculation of the overlap matrix
<MD= 1>  Calculation of the nonlocal matrix
<MD= 1>  Calculation of the VNA projector matrix

******************* MD= 1  SCF= 1 *******************
<Band>  Solving the eigenvalue problem...
 KGrids1:  -0.44444  -0.33333  -0.22222  -0.11111   0.00000   0.11111   0.22222   0.33333   0.44445 
 KGrids2:   0.00000 
 KGrids3:  -0.44444  -0.33333  -0.22222  -0.11111   0.00000   0.11111   0.22222   0.33334   0.44445 
<Band_DFT>  Eigen, time=0.094310
<Band_DFT>  DM, time=0.061742
    1    C  MulP   1.8509  1.8509 sum   3.7017
    2    C  MulP   2.1491  2.1491 sum   4.2983
    3    C  MulP   2.1491  2.1491 sum   4.2983
    4    C  MulP   1.8509  1.8509 sum   3.7017
 Sum of MulP: up   =     8.00000 down          =     8.00000
              total=    16.00000 ideal(neutral)=    16.00000
<DFT>  Total Spin Moment (muB) =  0.000000000000
<DFT>  Mixing_weight= 0.010000000000
<DFT>  Uele   =   -3.577926373926  dUele     =   1.000000000000
<DFT>  NormRD =    1.000000000000  Criterion =   0.000000000100

******************* MD= 1  SCF= 2 *******************
<Poisson>  Poisson's equation using FFT...
<Set_Hamiltonian>  Hamiltonian matrix for VNA+dVH+Vxc...
<Band>  Solving the eigenvalue problem...
 KGrids1:  -0.44444  -0.33333  -0.22222  -0.11111   0.00000   0.11111   0.22222   0.33333   0.44445 
 KGrids2:   0.00000 
 KGrids3:  -0.44444  -0.33333  -0.22222  -0.11111   0.00000   0.11111   0.22222   0.33334   0.44445 
<Band_DFT>  Eigen, time=0.043862
<Band_DFT>  DM, time=0.061894
    1    C  MulP   1.8669  1.8669 sum   3.7339
    2    C  MulP   2.1331  2.1331 sum   4.2661
    3    C  MulP   2.1331  2.1331 sum   4.2661
    4    C  MulP   1.8669  1.8669 sum   3.7339
 Sum of MulP: up   =     8.00000 down          =     8.00000
              total=    16.00000 ideal(neutral)=    16.00000
<DFT>  Total Spin Moment (muB) =  0.000000000000
<DFT>  Mixing_weight= 0.001199424763
<DFT>  Uele   =   -3.601542125194  dUele     =   0.023615751268
<DFT>  NormRD =    2.708750625099  Criterion =   0.000000000100

******************* MD= 1  SCF= 3 *******************
<Poisson>  Poisson's equation using FFT...
<Set_Hamiltonian>  Hamiltonian matrix for VNA+dVH+Vxc...
<Band>  Solving the eigenvalue problem...
 KGrids1:  -0.44444  -0.33333  -0.22222  -0.11111   0.00000   0.11111   0.22222   0.33333   0.44445 
 KGrids2:   0.00000 
 KGrids3:  -0.44444  -0.33333  -0.22222  -0.11111   0.00000   0.11111   0.22222   0.33334   0.44445 
<Band_DFT>  Eigen, time=0.043768
<Band_DFT>  DM, time=0.061840
    1    C  MulP   1.8678  1.8678 sum   3.7357
    2    C  MulP   2.1322  2.1322 sum   4.2643
    3    C  MulP   2.1322  2.1322 sum   4.2643
    4    C  MulP   1.8678  1.8678 sum   3.7357
 Sum of MulP: up   =     8.00000 down          =     8.00000
              total=    16.00000 ideal(neutral)=    16.00000
<DFT>  Total Spin Moment (muB) =  0.000000000000
<DFT>  Mixing_weight= 0.020000000000
<DFT>  Uele   =   -3.603677558022  dUele     =   0.002135432828
<DFT>  NormRD =    2.704546447019  Criterion =   0.000000000100

******************* MD= 1  SCF= 4 *******************
<Poisson>  Poisson's equation using FFT...
<Set_Hamiltonian>  Hamiltonian matrix for VNA+dVH+Vxc...
<Band>  Solving the eigenvalue problem...
 KGrids1:  -0.44444  -0.33333  -0.22222  -0.11111   0.00000   0.11111   0.22222   0.33333   0.44445 
 KGrids2:   0.00000 
 KGrids3:  -0.44444  -0.33333  -0.22222  -0.11111   0.00000   0.11111   0.22222   0.33334   0.44445 
<Band_DFT>  Eigen, time=0.043857
<Band_DFT>  DM, time=0.061952
    1    C  MulP   1.8830  1.8830 sum   3.7661
    2    C  MulP   2.1170  2.1170 sum   4.2339
    3    C  MulP   2.1170  2.1170 sum   4.2339
    4    C  MulP   1.8830  1.8830 sum   3.7661
 Sum of MulP: up   =     8.00000 down          =     8.00000
              total=    16.00000 ideal(neutral)=    16.00000
<DFT>  Total Spin Moment (muB) =  0.000000000000
<DFT>  Mixing_weight= 0.020000000000
<DFT>  Uele   =   -3.639289761165  dUele     =   0.035612203143
<DFT>  NormRD =    2.634959416943  Criterion =   0.000000000100

******************* MD= 1  SCF= 5 *******************
<Poisson>  Poisson's equation using FFT...
<Set_Hamiltonian>  Hamiltonian matrix for VNA+dVH+Vxc...
<Band>  Solving the eigenvalue problem...
 KGrids1:  -0.44444  -0.33333  -0.22222  -0.11111   0.00000   0.11111   0.22222   0.33333   0.44445 
 KGrids2:   0.00000 
 KGrids3:  -0.44444  -0.33333  -0.22222  -0.11111   0.00000   0.11111   0.22222   0.33334   0.44445 
<Band_DFT>  Eigen, time=0.043771
<Band_DFT>  DM, time=0.061978
    1    C  MulP   1.8963  1.8963 sum   3.7927
    2    C  MulP   2.1037  2.1037 sum   4.2073
    3    C  MulP   2.1037  2.1037 sum   4.2073
    4    C  MulP   1.8963  1.8963 sum   3.7927
 Sum of MulP: up   =     8.00000 down          =     8.00000
              total=    16.00000 ideal(neutral)=    16.00000
<DFT>  Total Spin Moment (muB) =  0.000000000000
<DFT>  Mixing_weight= 0.020000000000
<DFT>  Uele   =   -3.674428257297  dUele     =   0.035138496133
<DFT>  NormRD =    2.568787415356  Criterion =   0.000000000100

******************* MD= 1  SCF= 6 *******************
<Poisson>  Poisson's equation using FFT...
<Set_Hamiltonian>  Hamiltonian matrix for VNA+dVH+Vxc...
<Band>  Solving the eigenvalue problem...
 KGrids1:  -0.44444  -0.33333  -0.22222  -0.11111   0.00000   0.11111   0.22222   0.33333   0.44445 
 KGrids2:   0.00000 
 KGrids3:  -0.44444  -0.33333  -0.22222  -0.11111   0.00000   0.11111   0.22222   0.33334   0.44445 
<Band_DFT>  Eigen, time=0.043806
<Band_DFT>  DM, time=0.061751
    1    C  MulP   1.9079  1.9079 sum   3.8158
    2    C  MulP   2.0921  2.0921 sum   4.1842
    3    C  MulP   2.0921  2.0921 sum   4.1842
    4    C  MulP   1.9079  1.9079 sum   3.8158
 Sum of MulP: up   =     8.00000 down          =     8.00000
              total=    16.00000 ideal(neutral)=    16.00000
<DFT>  Total Spin Moment (muB) =  0.000000000000
<DFT>  Mixing_weight= 0.020000000000
<DFT>  Uele   =   -3.709056070234  dUele     =   0.034627812936
<DFT>  NormRD =    2.505644148084  Criterion =   0.000000000100

******************* MD= 1  SCF= 7 *******************
<Poisson>  Poisson's equation using FFT...
<Set_Hamiltonian>  Hamiltonian matrix for VNA+dVH+Vxc...
<Band>  Solving the eigenvalue problem...
 KGrids1:  -0.44444  -0.33333  -0.22222  -0.11111   0.00000   0.11111   0.22222   0.33333   0.44445 
 KGrids2:   0.00000 
 KGrids3:  -0.44444  -0.33333  -0.22222  -0.11111   0.00000   0.11111   0.22222   0.33334   0.44445 
<Band_DFT>  Eigen, time=0.043728
<Band_DFT>  DM, time=0.062222
    1    C  MulP   1.9178  1.9178 sum   3.8356
    2    C  MulP   2.0822  2.0822 sum   4.1644
    3    C  MulP   2.0822  2.0822 sum   4.1644
    4    C  MulP   1.9178  1.9178 sum   3.8356
 Sum of MulP: up   =     8.00000 down          =     8.00000
              total=    16.00000 ideal(neutral)=    16.00000
<DFT>  Total Spin Moment (muB) =  0.000000000000
<DFT>  Mixing_weight= 0.002000000000
<DFT>  Uele   =   -3.743134700744  dUele     =   0.034078630510
<DFT>  NormRD =    2.445130129260  Criterion =   0.000000000100

******************* MD= 1  SCF= 8 *******************
<Poisson>  Poisson's equation using FFT...
<Set_Hamiltonian>  Hamiltonian matrix for VNA+dVH+Vxc...
<Band>  Solving the eigenvalue problem...
 KGrids1:  -0.44444  -0.33333  -0.22222  -0.11111   0.00000   0.11111   0.22222   0.33333   0.44445 
 KGrids2:   0.00000 
 KGrids3:  -0.44444  -0.33333  -0.22222  -0.11111   0.00000   0.11111   0.22222   0.33334   0.44445 
<Band_DFT>  Eigen, time=0.043875
<Band_DFT>  DM, time=0.061818
    1    C  MulP   1.4666  1.4666 sum   2.9331
    2    C  MulP   2.5334  2.5334 sum   5.0669
    3    C  MulP   2.5334  2.5334 sum   5.0669
    4    C  MulP   1.4666  1.4666 sum   2.9331
 Sum of MulP: up   =     8.00000 down          =     8.00000
              total=    16.00000 ideal(neutral)=    16.00000
<DFT>  Total Spin Moment (muB) =  0.000000000000
<DFT>  Mixing_weight= 0.002000000000
<DFT>  Uele   =   -5.177424940335  dUele     =   1.434290239591
<DFT>  NormRD =    2.551464537990  Criterion =   0.000000000100

******************* MD= 1  SCF= 9 *******************
<Poisson>  Poisson's equation using FFT...
<Set_Hamiltonian>  Hamiltonian matrix for VNA+dVH+Vxc...
<Band>  Solving the eigenvalue problem...
 KGrids1:  -0.44444  -0.33333  -0.22222  -0.11111   0.00000   0.11111   0.22222   0.33333   0.44445 
 KGrids2:   0.00000 
 KGrids3:  -0.44444  -0.33333  -0.22222  -0.11111   0.00000   0.11111   0.22222   0.33334   0.44445 
<Band_DFT>  Eigen, time=0.043745
<Band_DFT>  DM, time=0.062283
    1    C  MulP   1.9969  1.9969 sum   3.9938
    2    C  MulP   2.0031  2.0031 sum   4.0062
    3    C  MulP   2.0031  2.0031 sum   4.0062
    4    C  MulP   1.9969  1.9969 sum   3.9938
 Sum of MulP: up   =     8.00000 down          =     8.00000
              total=    16.00000 ideal(neutral)=    16.00000
<DFT>  Total Spin Moment (muB) =  0.000000000000
<DFT>  Mixing_weight= 0.002000000000
<DFT>  Uele   =   -5.280389553527  dUele     =   0.102964613192
<DFT>  NormRD =    0.143290020026  Criterion =   0.000000000100

******************* MD= 1  SCF=10 *******************
<Poisson>  Poisson's equation using FFT...
<Set_Hamiltonian>  Hamiltonian matrix for VNA+dVH+Vxc...
<Band>  Solving the eigenvalue problem...
 KGrids1:  -0.44444  -0.33333  -0.22222  -0.11111   0.00000   0.11111   0.22222   0.33333   0.44445 
 KGrids2:   0.00000 
 KGrids3:  -0.44444  -0.33333  -0.22222  -0.11111   0.00000   0.11111   0.22222   0.33334   0.44445 
<Band_DFT>  Eigen, time=0.043712
<Band_DFT>  DM, time=0.062291
    1    C  MulP   1.9843  1.9843 sum   3.9686
    2    C  MulP   2.0157  2.0157 sum   4.0314
    3    C  MulP   2.0157  2.0157 sum   4.0314
    4    C  MulP   1.9843  1.9843 sum   3.9686
 Sum of MulP: up   =     8.00000 down          =     8.00000
              total=    16.00000 ideal(neutral)=    16.00000
<DFT>  Total Spin Moment (muB) =  0.000000000000
<DFT>  Mixing_weight= 0.002000000000
<DFT>  Uele   =   -5.385347683342  dUele     =   0.104958129815
<DFT>  NormRD =    0.062198517274  Criterion =   0.000000000100

******************* MD= 1  SCF=11 *******************
<Poisson>  Poisson's equation using FFT...
<Set_Hamiltonian>  Hamiltonian matrix for VNA+dVH+Vxc...
<Band>  Solving the eigenvalue problem...
 KGrids1:  -0.44444  -0.33333  -0.22222  -0.11111   0.00000   0.11111   0.22222   0.33333   0.44445 
 KGrids2:   0.00000 
 KGrids3:  -0.44444  -0.33333  -0.22222  -0.11111   0.00000   0.11111   0.22222   0.33334   0.44445 
<Band_DFT>  Eigen, time=0.043699
<Band_DFT>  DM, time=0.062220
    1    C  MulP   1.9844  1.9844 sum   3.9688
    2    C  MulP   2.0156  2.0156 sum   4.0312
    3    C  MulP   2.0156  2.0156 sum   4.0312
    4    C  MulP   1.9844  1.9844 sum   3.9688
 Sum of MulP: up   =     8.00000 down          =     8.00000
              total=    16.00000 ideal(neutral)=    16.00000
<DFT>  Total Spin Moment (muB) =  0.000000000000
<DFT>  Mixing_weight= 0.002000000000
<DFT>  Uele   =   -5.466913572619  dUele     =   0.081565889277
<DFT>  NormRD =    0.024374061900  Criterion =   0.000000000100

******************* MD= 1  SCF=12 *******************
<Poisson>  Poisson's equation using FFT...
<Set_Hamiltonian>  Hamiltonian matrix for VNA+dVH+Vxc...
<Band>  Solving the eigenvalue problem...
 KGrids1:  -0.44444  -0.33333  -0.22222  -0.11111   0.00000   0.11111   0.22222   0.33333   0.44445 
 KGrids2:   0.00000 
 KGrids3:  -0.44444  -0.33333  -0.22222  -0.11111   0.00000   0.11111   0.22222   0.33334   0.44445 
<Band_DFT>  Eigen, time=0.043666
<Band_DFT>  DM, time=0.062295
    1    C  MulP   1.9813  1.9813 sum   3.9626
    2    C  MulP   2.0187  2.0187 sum   4.0374
    3    C  MulP   2.0187  2.0187 sum   4.0374
    4    C  MulP   1.9813  1.9813 sum   3.9626
 Sum of MulP: up   =     8.00000 down          =     8.00000
              total=    16.00000 ideal(neutral)=    16.00000
<DFT>  Total Spin Moment (muB) =  0.000000000000
<DFT>  Mixing_weight= 0.002000000000
<DFT>  Uele   =   -5.462250937300  dUele     =   0.004662635319
<DFT>  NormRD =    0.007706091269  Criterion =   0.000000000100

******************* MD= 1  SCF=13 *******************
<Poisson>  Poisson's equation using FFT...
<Set_Hamiltonian>  Hamiltonian matrix for VNA+dVH+Vxc...
<Band>  Solving the eigenvalue problem...
 KGrids1:  -0.44444  -0.33333  -0.22222  -0.11111   0.00000   0.11111   0.22222   0.33333   0.44445 
 KGrids2:   0.00000 
 KGrids3:  -0.44444  -0.33333  -0.22222  -0.11111   0.00000   0.11111   0.22222   0.33334   0.44445 
<Band_DFT>  Eigen, time=0.043616
<Band_DFT>  DM, time=0.062111
    1    C  MulP   1.9786  1.9786 sum   3.9571
    2    C  MulP   2.0214  2.0214 sum   4.0428
    3    C  MulP   2.0214  2.0214 sum   4.0428
    4    C  MulP   1.9786  1.9786 sum   3.9572
 Sum of MulP: up   =     8.00000 down          =     8.00000
              total=    16.00000 ideal(neutral)=    16.00000
<DFT>  Total Spin Moment (muB) =  0.000000000000
<DFT>  Mixing_weight= 0.002000000000
<DFT>  Uele   =   -5.460828628031  dUele     =   0.001422309270
<DFT>  NormRD =    0.006316988150  Criterion =   0.000000000100

******************* MD= 1  SCF=14 *******************
<Poisson>  Poisson's equation using FFT...
<Set_Hamiltonian>  Hamiltonian matrix for VNA+dVH+Vxc...
<Band>  Solving the eigenvalue problem...
 KGrids1:  -0.44444  -0.33333  -0.22222  -0.11111   0.00000   0.11111   0.22222   0.33333   0.44445 
 KGrids2:   0.00000 
 KGrids3:  -0.44444  -0.33333  -0.22222  -0.11111   0.00000   0.11111   0.22222   0.33334   0.44445 
<Band_DFT>  Eigen, time=0.043632
<Band_DFT>  DM, time=0.062243
    1    C  MulP   1.9796  1.9796 sum   3.9593
    2    C  MulP   2.0205  2.0205 sum   4.0410
    3    C  MulP   2.0204  2.0204 sum   4.0408
    4    C  MulP   1.9795  1.9795 sum   3.9590
 Sum of MulP: up   =     8.00000 down          =     8.00000
              total=    16.00000 ideal(neutral)=    16.00000
<DFT>  Total Spin Moment (muB) =  0.000000000000
<DFT>  Mixing_weight= 0.002000000000
<DFT>  Uele   =   -5.461159593547  dUele     =   0.000330965516
<DFT>  NormRD =    0.001536667738  Criterion =   0.000000000100

******************* MD= 1  SCF=15 *******************
<Poisson>  Poisson's equation using FFT...
<Set_Hamiltonian>  Hamiltonian matrix for VNA+dVH+Vxc...
<Band>  Solving the eigenvalue problem...
 KGrids1:  -0.44444  -0.33333  -0.22222  -0.11111   0.00000   0.11111   0.22222   0.33333   0.44445 
 KGrids2:   0.00000 
 KGrids3:  -0.44444  -0.33333  -0.22222  -0.11111   0.00000   0.11111   0.22222   0.33334   0.44445 
<Band_DFT>  Eigen, time=0.043707
<Band_DFT>  DM, time=0.062134
    1    C  MulP   1.9780  1.9780 sum   3.9560
    2    C  MulP   2.0195  2.0195 sum   4.0390
    3    C  MulP   2.0212  2.0212 sum   4.0423
    4    C  MulP   1.9814  1.9814 sum   3.9627
 Sum of MulP: up   =     8.00000 down          =     8.00000
              total=    16.00000 ideal(neutral)=    16.00000
<DFT>  Total Spin Moment (muB) =  0.000000000000
<DFT>  Mixing_weight= 0.002000000000
<DFT>  Uele   =   -5.461205232855  dUele     =   0.000045639308
<DFT>  NormRD =    0.008714701867  Criterion =   0.000000000100

******************* MD= 1  SCF=16 *******************
<Poisson>  Poisson's equation using FFT...
<Set_Hamiltonian>  Hamiltonian matrix for VNA+dVH+Vxc...
<Band>  Solving the eigenvalue problem...
 KGrids1:  -0.44444  -0.33333  -0.22222  -0.11111   0.00000   0.11111   0.22222   0.33333   0.44445 
 KGrids2:   0.00000 
 KGrids3:  -0.44444  -0.33333  -0.22222  -0.11111   0.00000   0.11111   0.22222   0.33334   0.44445 
<Band_DFT>  Eigen, time=0.043647
<Band_DFT>  DM, time=0.062122
    1    C  MulP   1.9799  1.9799 sum   3.9598
    2    C  MulP   2.0201  2.0201 sum   4.0402
    3    C  MulP   2.0201  2.0201 sum   4.0402
    4    C  MulP   1.9799  1.9799 sum   3.9597
 Sum of MulP: up   =     8.00000 down          =     8.00000
              total=    16.00000 ideal(neutral)=    16.00000
<DFT>  Total Spin Moment (muB) =  0.000000000000
<DFT>  Mixing_weight= 0.002000000000
<DFT>  Uele   =   -5.461283976420  dUele     =   0.000078743565
<DFT>  NormRD =    0.000397464703  Criterion =   0.000000000100

******************* MD= 1  SCF=17 *******************
<Poisson>  Poisson's equation using FFT...
<Set_Hamiltonian>  Hamiltonian matrix for VNA+dVH+Vxc...
<Band>  Solving the eigenvalue problem...
 KGrids1:  -0.44444  -0.33333  -0.22222  -0.11111   0.00000   0.11111   0.22222   0.33333   0.44445 
 KGrids2:   0.00000 
 KGrids3:  -0.44444  -0.33333  -0.22222  -0.11111   0.00000   0.11111   0.22222   0.33334   0.44445 
<Band_DFT>  Eigen, time=0.043620
<Band_DFT>  DM, time=0.062226
    1    C  MulP   1.9798  1.9798 sum   3.9596
    2    C  MulP   2.0202  2.0202 sum   4.0404
    3    C  MulP   2.0202  2.0202 sum   4.0404
    4    C  MulP   1.9798  1.9798 sum   3.9596
 Sum of MulP: up   =     8.00000 down          =     8.00000
              total=    16.00000 ideal(neutral)=    16.00000
<DFT>  Total Spin Moment (muB) =  0.000000000000
<DFT>  Mixing_weight= 0.002000000000
<DFT>  Uele   =   -5.461223948613  dUele     =   0.000060027806
<DFT>  NormRD =    0.000109168019  Criterion =   0.000000000100

******************* MD= 1  SCF=18 *******************
<Poisson>  Poisson's equation using FFT...
<Set_Hamiltonian>  Hamiltonian matrix for VNA+dVH+Vxc...
<Band>  Solving the eigenvalue problem...
 KGrids1:  -0.44444  -0.33333  -0.22222  -0.11111   0.00000   0.11111   0.22222   0.33333   0.44445 
 KGrids2:   0.00000 
 KGrids3:  -0.44444  -0.33333  -0.22222  -0.11111   0.00000   0.11111   0.22222   0.33334   0.44445 
<Band_DFT>  Eigen, time=0.043784
<Band_DFT>  DM, time=0.062204
    1    C  MulP   1.9798  1.9798 sum   3.9596
    2    C  MulP   2.0202  2.0202 sum   4.0403
    3    C  MulP   2.0202  2.0202 sum   4.0405
    4    C  MulP   1.9798  1.9798 sum   3.9596
 Sum of MulP: up   =     8.00000 down          =     8.00000
              total=    16.00000 ideal(neutral)=    16.00000
<DFT>  Total Spin Moment (muB) =  0.000000000000
<DFT>  Mixing_weight= 0.002000000000
<DFT>  Uele   =   -5.461225220227  dUele     =   0.000001271614
<DFT>  NormRD =    0.000167426275  Criterion =   0.000000000100

******************* MD= 1  SCF=19 *******************
<Poisson>  Poisson's equation using FFT...
<Set_Hamiltonian>  Hamiltonian matrix for VNA+dVH+Vxc...
<Band>  Solving the eigenvalue problem...
 KGrids1:  -0.44444  -0.33333  -0.22222  -0.11111   0.00000   0.11111   0.22222   0.33333   0.44445 
 KGrids2:   0.00000 
 KGrids3:  -0.44444  -0.33333  -0.22222  -0.11111   0.00000   0.11111   0.22222   0.33334   0.44445 
<Band_DFT>  Eigen, time=0.043213
<Band_DFT>  DM, time=0.062261
    1    C  MulP   1.9798  1.9798 sum   3.9596
    2    C  MulP   2.0202  2.0202 sum   4.0404
    3    C  MulP   2.0202  2.0202 sum   4.0404
    4    C  MulP   1.9798  1.9798 sum   3.9596
 Sum of MulP: up   =     8.00000 down          =     8.00000
              total=    16.00000 ideal(neutral)=    16.00000
<DFT>  Total Spin Moment (muB) =  0.000000000000
<DFT>  Mixing_weight= 0.002000000000
<DFT>  Uele   =   -5.461226069415  dUele     =   0.000000849188
<DFT>  NormRD =    0.000040388491  Criterion =   0.000000000100

******************* MD= 1  SCF=20 *******************
<Poisson>  Poisson's equation using FFT...
<Set_Hamiltonian>  Hamiltonian matrix for VNA+dVH+Vxc...
<Band>  Solving the eigenvalue problem...
 KGrids1:  -0.44444  -0.33333  -0.22222  -0.11111   0.00000   0.11111   0.22222   0.33333   0.44445 
 KGrids2:   0.00000 
 KGrids3:  -0.44444  -0.33333  -0.22222  -0.11111   0.00000   0.11111   0.22222   0.33334   0.44445 
<Band_DFT>  Eigen, time=0.043722
<Band_DFT>  DM, time=0.062241
    1    C  MulP   1.9798  1.9798 sum   3.9596
    2    C  MulP   2.0202  2.0202 sum   4.0404
    3    C  MulP   2.0202  2.0202 sum   4.0404
    4    C  MulP   1.9798  1.9798 sum   3.9596
 Sum of MulP: up   =     8.00000 down          =     8.00000
              total=    16.00000 ideal(neutral)=    16.00000
<DFT>  Total Spin Moment (muB) =  0.000000000000
<DFT>  Mixing_weight= 0.002000000000
<DFT>  Uele   =   -5.461228241082  dUele     =   0.000002171667
<DFT>  NormRD =    0.000004413894  Criterion =   0.000000000100

******************* MD= 1  SCF=21 *******************
<Poisson>  Poisson's equation using FFT...
<Set_Hamiltonian>  Hamiltonian matrix for VNA+dVH+Vxc...
<Band>  Solving the eigenvalue problem...
 KGrids1:  -0.44444  -0.33333  -0.22222  -0.11111   0.00000   0.11111   0.22222   0.33333   0.44445 
 KGrids2:   0.00000 
 KGrids3:  -0.44444  -0.33333  -0.22222  -0.11111   0.00000   0.11111   0.22222   0.33334   0.44445 
<Band_DFT>  Eigen, time=0.043699
<Band_DFT>  DM, time=0.062190
    1    C  MulP   1.9798  1.9798 sum   3.9596
    2    C  MulP   2.0202  2.0202 sum   4.0404
    3    C  MulP   2.0202  2.0202 sum   4.0404
    4    C  MulP   1.9798  1.9798 sum   3.9596
 Sum of MulP: up   =     8.00000 down          =     8.00000
              total=    16.00000 ideal(neutral)=    16.00000
<DFT>  Total Spin Moment (muB) =  0.000000000000
<DFT>  Mixing_weight= 0.002000000000
<DFT>  Uele   =   -5.461228349440  dUele     =   0.000000108359
<DFT>  NormRD =    0.000001362923  Criterion =   0.000000000100

******************* MD= 1  SCF=22 *******************
<Poisson>  Poisson's equation using FFT...
<Set_Hamiltonian>  Hamiltonian matrix for VNA+dVH+Vxc...
<Band>  Solving the eigenvalue problem...
 KGrids1:  -0.44444  -0.33333  -0.22222  -0.11111   0.00000   0.11111   0.22222   0.33333   0.44445 
 KGrids2:   0.00000 
 KGrids3:  -0.44444  -0.33333  -0.22222  -0.11111   0.00000   0.11111   0.22222   0.33334   0.44445 
<Band_DFT>  Eigen, time=0.043745
<Band_DFT>  DM, time=0.062319
    1    C  MulP   1.9798  1.9798 sum   3.9596
    2    C  MulP   2.0202  2.0202 sum   4.0404
    3    C  MulP   2.0202  2.0202 sum   4.0404
    4    C  MulP   1.9798  1.9798 sum   3.9596
 Sum of MulP: up   =     8.00000 down          =     8.00000
              total=    16.00000 ideal(neutral)=    16.00000
<DFT>  Total Spin Moment (muB) =  0.000000000000
<DFT>  Mixing_weight= 0.002000000000
<DFT>  Uele   =   -5.461228270037  dUele     =   0.000000079403
<DFT>  NormRD =    0.000000244733  Criterion =   0.000000000100

******************* MD= 1  SCF=23 *******************
<Poisson>  Poisson's equation using FFT...
<Set_Hamiltonian>  Hamiltonian matrix for VNA+dVH+Vxc...
<Band>  Solving the eigenvalue problem...
 KGrids1:  -0.44444  -0.33333  -0.22222  -0.11111   0.00000   0.11111   0.22222   0.33333   0.44445 
 KGrids2:   0.00000 
 KGrids3:  -0.44444  -0.33333  -0.22222  -0.11111   0.00000   0.11111   0.22222   0.33334   0.44445 
<Band_DFT>  Eigen, time=0.043719
<Band_DFT>  DM, time=0.062289
    1    C  MulP   1.9798  1.9798 sum   3.9596
    2    C  MulP   2.0202  2.0202 sum   4.0404
    3    C  MulP   2.0202  2.0202 sum   4.0404
    4    C  MulP   1.9798  1.9798 sum   3.9596
 Sum of MulP: up   =     8.00000 down          =     8.00000
              total=    16.00000 ideal(neutral)=    16.00000
<DFT>  Total Spin Moment (muB) =  0.000000000000
<DFT>  Mixing_weight= 0.002000000000
<DFT>  Uele   =   -5.461228251986  dUele     =   0.000000018051
<DFT>  NormRD =    0.000000019548  Criterion =   0.000000000100

******************* MD= 1  SCF=24 *******************
<Poisson>  Poisson's equation using FFT...
<Set_Hamiltonian>  Hamiltonian matrix for VNA+dVH+Vxc...
<Band>  Solving the eigenvalue problem...
 KGrids1:  -0.44444  -0.33333  -0.22222  -0.11111   0.00000   0.11111   0.22222   0.33333   0.44445 
 KGrids2:   0.00000 
 KGrids3:  -0.44444  -0.33333  -0.22222  -0.11111   0.00000   0.11111   0.22222   0.33334   0.44445 
<Band_DFT>  Eigen, time=0.043770
<Band_DFT>  DM, time=0.062202
    1    C  MulP   1.9798  1.9798 sum   3.9596
    2    C  MulP   2.0202  2.0202 sum   4.0404
    3    C  MulP   2.0202  2.0202 sum   4.0404
    4    C  MulP   1.9798  1.9798 sum   3.9596
 Sum of MulP: up   =     8.00000 down          =     8.00000
              total=    16.00000 ideal(neutral)=    16.00000
<DFT>  Total Spin Moment (muB) =  0.000000000000
<DFT>  Mixing_weight= 0.002000000000
<DFT>  Uele   =   -5.461228249128  dUele     =   0.000000002858
<DFT>  NormRD =    0.000000015922  Criterion =   0.000000000100

******************* MD= 1  SCF=25 *******************
<Poisson>  Poisson's equation using FFT...
<Set_Hamiltonian>  Hamiltonian matrix for VNA+dVH+Vxc...
<Band>  Solving the eigenvalue problem...
 KGrids1:  -0.44444  -0.33333  -0.22222  -0.11111   0.00000   0.11111   0.22222   0.33333   0.44445 
 KGrids2:   0.00000 
 KGrids3:  -0.44444  -0.33333  -0.22222  -0.11111   0.00000   0.11111   0.22222   0.33334   0.44445 
<Band_DFT>  Eigen, time=0.043781
<Band_DFT>  DM, time=0.062328
    1    C  MulP   1.9798  1.9798 sum   3.9596
    2    C  MulP   2.0202  2.0202 sum   4.0404
    3    C  MulP   2.0202  2.0202 sum   4.0404
    4    C  MulP   1.9798  1.9798 sum   3.9596
 Sum of MulP: up   =     8.00000 down          =     8.00000
              total=    16.00000 ideal(neutral)=    16.00000
<DFT>  Total Spin Moment (muB) =  0.000000000000
<DFT>  Mixing_weight= 0.002000000000
<DFT>  Uele   =   -5.461228250156  dUele     =   0.000000001028
<DFT>  NormRD =    0.000000000480  Criterion =   0.000000000100

******************* MD= 1  SCF=26 *******************
<Poisson>  Poisson's equation using FFT...
<Set_Hamiltonian>  Hamiltonian matrix for VNA+dVH+Vxc...
<Band>  Solving the eigenvalue problem...
 KGrids1:  -0.44444  -0.33333  -0.22222  -0.11111   0.00000   0.11111   0.22222   0.33333   0.44445 
 KGrids2:   0.00000 
 KGrids3:  -0.44444  -0.33333  -0.22222  -0.11111   0.00000   0.11111   0.22222   0.33334   0.44445 
<Band_DFT>  Eigen, time=0.043671
<Band_DFT>  DM, time=0.062275
    1    C  MulP   1.9798  1.9798 sum   3.9596
    2    C  MulP   2.0202  2.0202 sum   4.0404
    3    C  MulP   2.0202  2.0202 sum   4.0404
    4    C  MulP   1.9798  1.9798 sum   3.9596
 Sum of MulP: up   =     8.00000 down          =     8.00000
              total=    16.00000 ideal(neutral)=    16.00000
<DFT>  Total Spin Moment (muB) =  0.000000000000
<DFT>  Mixing_weight= 0.002000000000
<DFT>  Uele   =   -5.461228250168  dUele     =   0.000000000012
<DFT>  NormRD =    0.000000000137  Criterion =   0.000000000100
Band_DFT_kpath start
kpath
1 ( 0.000000000000000  0.000000000000000  0.000000000000000)->( 0.000000000000000  0.500000000000000  0.500000000000000)
2 ( 0.000000000000000  0.500000000000000  0.500000000000000)->( 0.250000000000000  0.750000000000000  0.500000000000000)
3 ( 0.250000000000000  0.750000000000000  0.500000000000000)->( 0.500000000000000  0.500000000000000  0.500000000000000)
4 ( 0.500000000000000  0.500000000000000  0.500000000000000)->( 0.000000000000000  0.000000000000000  0.000000000000000)
5 ( 0.000000000000000  0.000000000000000  0.000000000000000)->( 0.375000000000000  0.750000000000000  0.375000000000000)
6 ( 0.375000000000000  0.750000000000000  0.375000000000000)->( 0.000000000000000  0.500000000000000  0.500000000000000)

<Band_DFT_Dosout>
 KGrids1: 0.000001 0.111112 0.222223 0.333334 0.444445 0.555557 0.666668 0.777779 0.888890 
 KGrids2: -0.000001 
 KGrids3: 0.000002 0.111113 0.222224 0.333335 0.444446 0.555558 0.666669 0.777780 0.888891 
 iemin and iemax= 1 37
 write eigenvalues
 write eigenvectors
<MD= 1>  Force calculation
  Force calculation #1
  Force calculation #2
  Force calculation #3
  Force calculation #4
  Force calculation #5
<MD= 1>  Total Energy
  Force calculation #6
  Force calculation #7

*******************************************************
                  Dipole moment (Debye)                 
*******************************************************

 Absolute D        0.48199576

                      Dx                Dy                Dz
 Total              0.48199563       -0.00035085        0.00000000
 Core              86.45772237      199.65970020        0.00000000
 Electron         -85.97572674     -199.66005105        0.00000000
 Back ground       -0.00000000       -0.00000000       -0.00000000

*******************************************************
                Total Energy (Hartree) at MD = 1        
*******************************************************

  Uele  =      -5.461228250168

  Ukin  =      12.371227498521
  UH0   =     -80.313959551126
  UH1   =       0.271250470677
  Una   =      -8.010916179996
  Unl   =      -0.207929126363
  Uxc0  =      -3.226898579861
  Uxc1  =      -3.226898579861
  Ucore =      60.055902489821
  Uhub  =       0.000000000000
  Ucs   =       0.000000000000
  Uzs   =       0.000000000000
  Uzo   =       0.000000000000
  Uef   =       0.000000000000
  UvdW  =       0.000000000000
  Utot  =     -22.288221558188

  Note:

  Utot = Ukin+UH0+UH1+Una+Unl+Uxc0+Uxc1+Ucore+Uhub+Ucs+Uzs+Uzo+Uef+UvdW

  Uele:   band energy
  Ukin:   kinetic energy
  UH0:    electric part of screened Coulomb energy
  UH1:    difference electron-electron Coulomb energy
  Una:    neutral atom potential energy
  Unl:    non-local potential energy
  Uxc0:   exchange-correlation energy for alpha spin
  Uxc1:   exchange-correlation energy for beta spin
  Ucore:  core-core Coulomb energy
  Uhub:   LDA+U energy
  Ucs:    constraint energy for spin orientation
  Uzs:    Zeeman term for spin magnetic moment
  Uzo:    Zeeman term for orbital magnetic moment
  Uef:    electric energy by electric field
  UvdW:   semi-empirical vdW energy 

  (see also PRB 72, 045121(2005) for the energy contributions)


*******************************************************
           Computational times (s) at MD = 1            
*******************************************************

  DFT in total      =   17.78119

  Set_OLP_Kin       =    0.52425
  Set_Nonlocal      =    0.77354
  Set_ProExpn_VNA   =    1.49238
  Set_Hamiltonian   =    3.37871
  Poisson           =    0.16017
  diagonalization   =    3.17681
  Mixing_DM         =    2.04784
  Force             =    3.35763
  Total_Energy      =    0.61601
  Set_Aden_Grid     =    0.02384
  Set_Orbitals_Grid =    0.05424
  Set_Density_Grid  =    0.76204
  RestartFileDFT    =    0.00116
  Mulliken_Charge   =    0.00245
  FFT(2D)_Density   =    0.18018

*******************************************************
             MD or geometry opt. at MD = 1              
*******************************************************

<Steepest_Descent>  SD_scaling= 1.259817322412
<Steepest_Descent>  |Maximum force| (Hartree/Bohr) = 0.038089147310
<Steepest_Descent>  Criterion       (Hartree/Bohr) = 0.000000001000

  atom=  1, XYZ(ang) Fxyz(a.u.)=   2.2500    0.0254    0.0000    -0.0000   -0.0381   -0.0000
  atom=  2, XYZ(ang) Fxyz(a.u.)=  -0.0000    1.3022   -0.0000     0.0000   -0.0049    0.0000
  atom=  3, XYZ(ang) Fxyz(a.u.)=  -0.0000    3.8938    0.0000     0.0000    0.0049   -0.0000
  atom=  4, XYZ(ang) Fxyz(a.u.)=   2.2500    5.1706   -0.0000    -0.0000    0.0381    0.0000

*******************************************************
        Analysis of neighbors and setting of grids        
*******************************************************


*******************************************************
  Allocation of atoms to proccesors at MD_iter=    2     
*******************************************************

 proc =   0  # of atoms=   1  estimated weight=         1.00000
 proc =   1  # of atoms=   1  estimated weight=         1.00000
 proc =   2  # of atoms=   1  estimated weight=         1.00000
 proc =   3  # of atoms=   1  estimated weight=         1.00000
 proc =   4  # of atoms=   0  estimated weight=         0.00000
 proc =   5  # of atoms=   0  estimated weight=         0.00000
 proc =   6  # of atoms=   0  estimated weight=         0.00000



TFNAN=      60   Average FNAN=  15.00000
TSNAN=       0   Average SNAN=   0.00000
<truncation> CpyCell= 2 ct_AN=   1 FNAN SNAN  13   0
<truncation> CpyCell= 2 ct_AN=   2 FNAN SNAN  17   0
<truncation> CpyCell= 2 ct_AN=   3 FNAN SNAN  17   0
<truncation> CpyCell= 2 ct_AN=   4 FNAN SNAN  13   0
<UCell_Box> Info. of cutoff energy and num. of grids
lattice vectors (bohr)
A  =  8.503766948605,  0.000000000000,  0.000000000000
B  =  0.000000000000, 37.794519771578,  0.000000000000
C  =  0.000000000000,  0.000000000000,  8.503766948605
reciprocal lattice vectors (bohr^-1)
RA =  0.738870825736,  0.000000000000,  0.000000000000
RB =  0.000000000000,  0.166245935791,  0.000000000000
RC =  0.000000000000,  0.000000000000,  0.738870825736
Required cutoff energy (Ryd) for 3D-grids = 180.0000
    Used cutoff energy (Ryd) for 3D-grids = 176.8814, 181.3310, 176.8814
Num. of grids of a-, b-, and c-axes = 36, 162, 36
Cell_Volume =   2733.074880027181 (Bohr^3)
GridVol     =      0.013017617741 (Bohr^3)
Cell vectors (bohr) of the grid cell (gtv)
  gtv_a =  0.236215748572,  0.000000000000,  0.000000000000
  gtv_b =  0.000000000000,  0.233299504763,  0.000000000000
  gtv_c =  0.000000000000,  0.000000000000,  0.236215748572
  |gtv_a| =  0.236215748572
  |gtv_b| =  0.233299504763
  |gtv_c| =  0.236215748572
Num. of grids overlapping with atom    1 = 40164
Num. of grids overlapping with atom    2 = 40236
Num. of grids overlapping with atom    3 = 40236
Num. of grids overlapping with atom    4 = 40164

*******************************************************
             SCF calculation at MD = 2                
*******************************************************

<MD= 2>  Calculation of the overlap matrix
<MD= 2>  Calculation of the nonlocal matrix
<MD= 2>  Calculation of the VNA projector matrix

******************* MD= 2  SCF= 1 *******************
<Restart>  Found restart files
<Poisson>  Poisson's equation using FFT...
<Band>  Solving the eigenvalue problem...
 KGrids1:  -0.44444  -0.33333  -0.22222  -0.11111   0.00000   0.11111   0.22222   0.33333   0.44445 
 KGrids2:   0.00000 
 KGrids3:  -0.44444  -0.33333  -0.22222  -0.11111   0.00000   0.11111   0.22222   0.33334   0.44445 
<Band_DFT>  Eigen, time=0.043686
<Band_DFT>  DM, time=0.062325
    1    C  MulP   1.9820  1.9820 sum   3.9639
    2    C  MulP   2.0180  2.0180 sum   4.0361
    3    C  MulP   2.0180  2.0180 sum   4.0361
    4    C  MulP   1.9820  1.9820 sum   3.9639
 Sum of MulP: up   =     8.00000 down          =     8.00000
              total=    16.00000 ideal(neutral)=    16.00000
<DFT>  Total Spin Moment (muB) =  0.000000000000
<DFT>  Mixing_weight= 0.020000000000
<DFT>  Uele   =   -5.468247602681  dUele     =   1.000000000000
<DFT>  NormRD =    1.000000000000  Criterion =   0.000000000100

******************* MD= 2  SCF= 2 *******************
<Poisson>  Poisson's equation using FFT...
<Set_Hamiltonian>  Hamiltonian matrix for VNA+dVH+Vxc...
<Band>  Solving the eigenvalue problem...
 KGrids1:  -0.44444  -0.33333  -0.22222  -0.11111   0.00000   0.11111   0.22222   0.33333   0.44445 
 KGrids2:   0.00000 
 KGrids3:  -0.44444  -0.33333  -0.22222  -0.11111   0.00000   0.11111   0.22222   0.33334   0.44445 
<Band_DFT>  Eigen, time=0.043712
<Band_DFT>  DM, time=0.062264
    1    C  MulP   1.9813  1.9813 sum   3.9626
    2    C  MulP   2.0187  2.0187 sum   4.0374
    3    C  MulP   2.0187  2.0187 sum   4.0374
    4    C  MulP   1.9813  1.9813 sum   3.9626
 Sum of MulP: up   =     8.00000 down          =     8.00000
              total=    16.00000 ideal(neutral)=    16.00000
<DFT>  Total Spin Moment (muB) =  0.000000000000
<DFT>  Mixing_weight= 0.020000000000
<DFT>  Uele   =   -5.468282516626  dUele     =   0.000034913946
<DFT>  NormRD =    0.122146665095  Criterion =   0.000000000100

******************* MD= 2  SCF= 3 *******************
<Poisson>  Poisson's equation using FFT...
<Set_Hamiltonian>  Hamiltonian matrix for VNA+dVH+Vxc...
<Band>  Solving the eigenvalue problem...
 KGrids1:  -0.44444  -0.33333  -0.22222  -0.11111   0.00000   0.11111   0.22222   0.33333   0.44445 
 KGrids2:   0.00000 
 KGrids3:  -0.44444  -0.33333  -0.22222  -0.11111   0.00000   0.11111   0.22222   0.33334   0.44445 
<Band_DFT>  Eigen, time=0.043684
<Band_DFT>  DM, time=0.062306
    1    C  MulP   1.9807  1.9807 sum   3.9615
    2    C  MulP   2.0193  2.0193 sum   4.0385
    3    C  MulP   2.0193  2.0193 sum   4.0385
    4    C  MulP   1.9807  1.9807 sum   3.9615
 Sum of MulP: up   =     8.00000 down          =     8.00000
              total=    16.00000 ideal(neutral)=    16.00000
<DFT>  Total Spin Moment (muB) =  0.000000000000
<DFT>  Mixing_weight= 0.020000000000
<DFT>  Uele   =   -5.468308633400  dUele     =   0.000026116774
<DFT>  NormRD =    0.118543211382  Criterion =   0.000000000100

******************* MD= 2  SCF= 4 *******************
<Poisson>  Poisson's equation using FFT...
<Set_Hamiltonian>  Hamiltonian matrix for VNA+dVH+Vxc...
<Band>  Solving the eigenvalue problem...
 KGrids1:  -0.44444  -0.33333  -0.22222  -0.11111   0.00000   0.11111   0.22222   0.33333   0.44445 
 KGrids2:   0.00000 
 KGrids3:  -0.44444  -0.33333  -0.22222  -0.11111   0.00000   0.11111   0.22222   0.33334   0.44445 
<Band_DFT>  Eigen, time=0.043669
<Band_DFT>  DM, time=0.062359
    1    C  MulP   1.9803  1.9803 sum   3.9606
    2    C  MulP   2.0197  2.0197 sum   4.0394
    3    C  MulP   2.0197  2.0197 sum   4.0394
    4    C  MulP   1.9803  1.9803 sum   3.9606
 Sum of MulP: up   =     8.00000 down          =     8.00000
              total=    16.00000 ideal(neutral)=    16.00000
<DFT>  Total Spin Moment (muB) =  0.000000000000
<DFT>  Mixing_weight= 0.020000000000
<DFT>  Uele   =   -5.468327487069  dUele     =   0.000018853669
<DFT>  NormRD =    0.115133258449  Criterion =   0.000000000100

******************* MD= 2  SCF= 5 *******************
<Poisson>  Poisson's equation using FFT...
<Set_Hamiltonian>  Hamiltonian matrix for VNA+dVH+Vxc...
<Band>  Solving the eigenvalue problem...
 KGrids1:  -0.44444  -0.33333  -0.22222  -0.11111   0.00000   0.11111   0.22222   0.33333   0.44445 
 KGrids2:   0.00000 
 KGrids3:  -0.44444  -0.33333  -0.22222  -0.11111   0.00000   0.11111   0.22222   0.33334   0.44445 
<Band_DFT>  Eigen, time=0.043722
<Band_DFT>  DM, time=0.062315
    1    C  MulP   1.9799  1.9799 sum   3.9599
    2    C  MulP   2.0201  2.0201 sum   4.0401
    3    C  MulP   2.0201  2.0201 sum   4.0401
    4    C  MulP   1.9799  1.9799 sum   3.9599
 Sum of MulP: up   =     8.00000 down          =     8.00000
              total=    16.00000 ideal(neutral)=    16.00000
<DFT>  Total Spin Moment (muB) =  0.000000000000
<DFT>  Mixing_weight= 0.020000000000
<DFT>  Uele   =   -5.468340337678  dUele     =   0.000012850610
<DFT>  NormRD =    0.111882142005  Criterion =   0.000000000100

******************* MD= 2  SCF= 6 *******************
<Poisson>  Poisson's equation using FFT...
<Set_Hamiltonian>  Hamiltonian matrix for VNA+dVH+Vxc...
<Band>  Solving the eigenvalue problem...
 KGrids1:  -0.44444  -0.33333  -0.22222  -0.11111   0.00000   0.11111   0.22222   0.33333   0.44445 
 KGrids2:   0.00000 
 KGrids3:  -0.44444  -0.33333  -0.22222  -0.11111   0.00000   0.11111   0.22222   0.33334   0.44445 
<Band_DFT>  Eigen, time=0.043660
<Band_DFT>  DM, time=0.062260
    1    C  MulP   1.9796  1.9796 sum   3.9593
    2    C  MulP   2.0204  2.0204 sum   4.0407
    3    C  MulP   2.0204  2.0204 sum   4.0407
    4    C  MulP   1.9796  1.9796 sum   3.9593
 Sum of MulP: up   =     8.00000 down          =     8.00000
              total=    16.00000 ideal(neutral)=    16.00000
<DFT>  Total Spin Moment (muB) =  0.000000000000
<DFT>  Mixing_weight= 0.020000000000
<DFT>  Uele   =   -5.468348220258  dUele     =   0.000007882580
<DFT>  NormRD =    0.108765416536  Criterion =   0.000000000100

******************* MD= 2  SCF= 7 *******************
<Poisson>  Poisson's equation using FFT...
<Set_Hamiltonian>  Hamiltonian matrix for VNA+dVH+Vxc...
<Band>  Solving the eigenvalue problem...
 KGrids1:  -0.44444  -0.33333  -0.22222  -0.11111   0.00000   0.11111   0.22222   0.33333   0.44445 
 KGrids2:   0.00000 
 KGrids3:  -0.44444  -0.33333  -0.22222  -0.11111   0.00000   0.11111   0.22222   0.33334   0.44445 
<Band_DFT>  Eigen, time=0.043683
<Band_DFT>  DM, time=0.062353
    1    C  MulP   1.9794  1.9794 sum   3.9588
    2    C  MulP   2.0206  2.0206 sum   4.0412
    3    C  MulP   2.0206  2.0206 sum   4.0412
    4    C  MulP   1.9794  1.9794 sum   3.9588
 Sum of MulP: up   =     8.00000 down          =     8.00000
              total=    16.00000 ideal(neutral)=    16.00000
<DFT>  Total Spin Moment (muB) =  0.000000000000
<DFT>  Mixing_weight= 0.002000000000
<DFT>  Uele   =   -5.468351983223  dUele     =   0.000003762965
<DFT>  NormRD =    0.105765643256  Criterion =   0.000000000100

******************* MD= 2  SCF= 8 *******************
<Poisson>  Poisson's equation using FFT...
<Set_Hamiltonian>  Hamiltonian matrix for VNA+dVH+Vxc...
<Band>  Solving the eigenvalue problem...
 KGrids1:  -0.44444  -0.33333  -0.22222  -0.11111   0.00000   0.11111   0.22222   0.33333   0.44445 
 KGrids2:   0.00000 
 KGrids3:  -0.44444  -0.33333  -0.22222  -0.11111   0.00000   0.11111   0.22222   0.33334   0.44445 
<Band_DFT>  Eigen, time=0.043716
<Band_DFT>  DM, time=0.062189
    1    C  MulP   2.0321  2.0321 sum   4.0642
    2    C  MulP   1.9679  1.9679 sum   3.9358
    3    C  MulP   1.9679  1.9679 sum   3.9358
    4    C  MulP   2.0321  2.0321 sum   4.0642
 Sum of MulP: up   =     8.00000 down          =     8.00000
              total=    16.00000 ideal(neutral)=    16.00000
<DFT>  Total Spin Moment (muB) =  0.000000000000
<DFT>  Mixing_weight= 0.002000000000
<DFT>  Uele   =   -5.453357979669  dUele     =   0.014994003554
<DFT>  NormRD =    0.255618952098  Criterion =   0.000000000100

******************* MD= 2  SCF= 9 *******************
<Poisson>  Poisson's equation using FFT...
<Set_Hamiltonian>  Hamiltonian matrix for VNA+dVH+Vxc...
<Band>  Solving the eigenvalue problem...
 KGrids1:  -0.44444  -0.33333  -0.22222  -0.11111   0.00000   0.11111   0.22222   0.33333   0.44445 
 KGrids2:   0.00000 
 KGrids3:  -0.44444  -0.33333  -0.22222  -0.11111   0.00000   0.11111   0.22222   0.33334   0.44445 
<Band_DFT>  Eigen, time=0.043713
<Band_DFT>  DM, time=0.062342
    1    C  MulP   1.9803  1.9803 sum   3.9606
    2    C  MulP   2.0197  2.0197 sum   4.0394
    3    C  MulP   2.0197  2.0197 sum   4.0394
    4    C  MulP   1.9803  1.9803 sum   3.9606
 Sum of MulP: up   =     8.00000 down          =     8.00000
              total=    16.00000 ideal(neutral)=    16.00000
<DFT>  Total Spin Moment (muB) =  0.000000000000
<DFT>  Mixing_weight= 0.002000000000
<DFT>  Uele   =   -5.464915609237  dUele     =   0.011557629568
<DFT>  NormRD =    0.008040896877  Criterion =   0.000000000100

******************* MD= 2  SCF=10 *******************
<Poisson>  Poisson's equation using FFT...
<Set_Hamiltonian>  Hamiltonian matrix for VNA+dVH+Vxc...
<Band>  Solving the eigenvalue problem...
 KGrids1:  -0.44444  -0.33333  -0.22222  -0.11111   0.00000   0.11111   0.22222   0.33333   0.44445 
 KGrids2:   0.00000 
 KGrids3:  -0.44444  -0.33333  -0.22222  -0.11111   0.00000   0.11111   0.22222   0.33334   0.44445 
<Band_DFT>  Eigen, time=0.043681
<Band_DFT>  DM, time=0.062298
    1    C  MulP   1.9791  1.9791 sum   3.9581
    2    C  MulP   2.0209  2.0209 sum   4.0419
    3    C  MulP   2.0209  2.0209 sum   4.0419
    4    C  MulP   1.9791  1.9791 sum   3.9581
 Sum of MulP: up   =     8.00000 down          =     8.00000
              total=    16.00000 ideal(neutral)=    16.00000
<DFT>  Total Spin Moment (muB) =  0.000000000000
<DFT>  Mixing_weight= 0.002000000000
<DFT>  Uele   =   -5.465875138977  dUele     =   0.000959529739
<DFT>  NormRD =    0.001630547096  Criterion =   0.000000000100

******************* MD= 2  SCF=11 *******************
<Poisson>  Poisson's equation using FFT...
<Set_Hamiltonian>  Hamiltonian matrix for VNA+dVH+Vxc...
<Band>  Solving the eigenvalue problem...
 KGrids1:  -0.44444  -0.33333  -0.22222  -0.11111   0.00000   0.11111   0.22222   0.33333   0.44445 
 KGrids2:   0.00000 
 KGrids3:  -0.44444  -0.33333  -0.22222  -0.11111   0.00000   0.11111   0.22222   0.33334   0.44445 
<Band_DFT>  Eigen, time=0.043746
<Band_DFT>  DM, time=0.062265
    1    C  MulP   1.9792  1.9792 sum   3.9585
    2    C  MulP   2.0208  2.0208 sum   4.0415
    3    C  MulP   2.0208  2.0208 sum   4.0415
    4    C  MulP   1.9792  1.9792 sum   3.9585
 Sum of MulP: up   =     8.00000 down          =     8.00000
              total=    16.00000 ideal(neutral)=    16.00000
<DFT>  Total Spin Moment (muB) =  0.000000000000
<DFT>  Mixing_weight= 0.002000000000
<DFT>  Uele   =   -5.465806773909  dUele     =   0.000068365068
<DFT>  NormRD =    0.000603951882  Criterion =   0.000000000100

******************* MD= 2  SCF=12 *******************
<Poisson>  Poisson's equation using FFT...
<Set_Hamiltonian>  Hamiltonian matrix for VNA+dVH+Vxc...
<Band>  Solving the eigenvalue problem...
 KGrids1:  -0.44444  -0.33333  -0.22222  -0.11111   0.00000   0.11111   0.22222   0.33333   0.44445 
 KGrids2:   0.00000 
 KGrids3:  -0.44444  -0.33333  -0.22222  -0.11111   0.00000   0.11111   0.22222   0.33334   0.44445 
<Band_DFT>  Eigen, time=0.043646
<Band_DFT>  DM, time=0.062180
    1    C  MulP   1.9793  1.9793 sum   3.9585
    2    C  MulP   2.0207  2.0207 sum   4.0415
    3    C  MulP   2.0207  2.0207 sum   4.0415
    4    C  MulP   1.9793  1.9793 sum   3.9585
 Sum of MulP: up   =     8.00000 down          =     8.00000
              total=    16.00000 ideal(neutral)=    16.00000
<DFT>  Total Spin Moment (muB) =  0.000000000000
<DFT>  Mixing_weight= 0.002000000000
<DFT>  Uele   =   -5.465875002195  dUele     =   0.000068228286
<DFT>  NormRD =    0.000343794309  Criterion =   0.000000000100

******************* MD= 2  SCF=13 *******************
<Poisson>  Poisson's equation using FFT...
<Set_Hamiltonian>  Hamiltonian matrix for VNA+dVH+Vxc...
<Band>  Solving the eigenvalue problem...
 KGrids1:  -0.44444  -0.33333  -0.22222  -0.11111   0.00000   0.11111   0.22222   0.33333   0.44445 
 KGrids2:   0.00000 
 KGrids3:  -0.44444  -0.33333  -0.22222  -0.11111   0.00000   0.11111   0.22222   0.33334   0.44445 
<Band_DFT>  Eigen, time=0.043589
<Band_DFT>  DM, time=0.062172
    1    C  MulP   1.9794  1.9794 sum   3.9587
    2    C  MulP   2.0207  2.0207 sum   4.0414
    3    C  MulP   2.0207  2.0207 sum   4.0413
    4    C  MulP   1.9793  1.9793 sum   3.9586
 Sum of MulP: up   =     8.00000 down          =     8.00000
              total=    16.00000 ideal(neutral)=    16.00000
<DFT>  Total Spin Moment (muB) =  0.000000000000
<DFT>  Mixing_weight= 0.002000000000
<DFT>  Uele   =   -5.465853931430  dUele     =   0.000021070765
<DFT>  NormRD =    0.000139278963  Criterion =   0.000000000100

******************* MD= 2  SCF=14 *******************
<Poisson>  Poisson's equation using FFT...
<Set_Hamiltonian>  Hamiltonian matrix for VNA+dVH+Vxc...
<Band>  Solving the eigenvalue problem...
 KGrids1:  -0.44444  -0.33333  -0.22222  -0.11111   0.00000   0.11111   0.22222   0.33333   0.44445 
 KGrids2:   0.00000 
 KGrids3:  -0.44444  -0.33333  -0.22222  -0.11111   0.00000   0.11111   0.22222   0.33334   0.44445 
<Band_DFT>  Eigen, time=0.043679
<Band_DFT>  DM, time=0.062394
    1    C  MulP   1.9793  1.9793 sum   3.9586
    2    C  MulP   2.0207  2.0207 sum   4.0413
    3    C  MulP   2.0207  2.0207 sum   4.0414
    4    C  MulP   1.9793  1.9793 sum   3.9587
 Sum of MulP: up   =     8.00000 down          =     8.00000
              total=    16.00000 ideal(neutral)=    16.00000
<DFT>  Total Spin Moment (muB) =  0.000000000000
<DFT>  Mixing_weight= 0.002000000000
<DFT>  Uele   =   -5.465853919513  dUele     =   0.000000011917
<DFT>  NormRD =    0.000018289564  Criterion =   0.000000000100

******************* MD= 2  SCF=15 *******************
<Poisson>  Poisson's equation using FFT...
<Set_Hamiltonian>  Hamiltonian matrix for VNA+dVH+Vxc...
<Band>  Solving the eigenvalue problem...
 KGrids1:  -0.44444  -0.33333  -0.22222  -0.11111   0.00000   0.11111   0.22222   0.33333   0.44445 
 KGrids2:   0.00000 
 KGrids3:  -0.44444  -0.33333  -0.22222  -0.11111   0.00000   0.11111   0.22222   0.33334   0.44445 
<Band_DFT>  Eigen, time=0.043660
<Band_DFT>  DM, time=0.062295
    1    C  MulP   1.9793  1.9793 sum   3.9587
    2    C  MulP   2.0207  2.0207 sum   4.0413
    3    C  MulP   2.0207  2.0207 sum   4.0413
    4    C  MulP   1.9793  1.9793 sum   3.9587
 Sum of MulP: up   =     8.00000 down          =     8.00000
              total=    16.00000 ideal(neutral)=    16.00000
<DFT>  Total Spin Moment (muB) =  0.000000000000
<DFT>  Mixing_weight= 0.002000000000
<DFT>  Uele   =   -5.465853891417  dUele     =   0.000000028096
<DFT>  NormRD =    0.000001411309  Criterion =   0.000000000100

******************* MD= 2  SCF=16 *******************
<Poisson>  Poisson's equation using FFT...
<Set_Hamiltonian>  Hamiltonian matrix for VNA+dVH+Vxc...
<Band>  Solving the eigenvalue problem...
 KGrids1:  -0.44444  -0.33333  -0.22222  -0.11111   0.00000   0.11111   0.22222   0.33333   0.44445 
 KGrids2:   0.00000 
 KGrids3:  -0.44444  -0.33333  -0.22222  -0.11111   0.00000   0.11111   0.22222   0.33334   0.44445 
<Band_DFT>  Eigen, time=0.043642
<Band_DFT>  DM, time=0.062245
    1    C  MulP   1.9793  1.9793 sum   3.9587
    2    C  MulP   2.0207  2.0207 sum   4.0413
    3    C  MulP   2.0207  2.0207 sum   4.0413
    4    C  MulP   1.9793  1.9793 sum   3.9587
 Sum of MulP: up   =     8.00000 down          =     8.00000
              total=    16.00000 ideal(neutral)=    16.00000
<DFT>  Total Spin Moment (muB) =  0.000000000000
<DFT>  Mixing_weight= 0.002000000000
<DFT>  Uele   =   -5.465854094838  dUele     =   0.000000203421
<DFT>  NormRD =    0.000003802676  Criterion =   0.000000000100

******************* MD= 2  SCF=17 *******************
<Poisson>  Poisson's equation using FFT...
<Set_Hamiltonian>  Hamiltonian matrix for VNA+dVH+Vxc...
<Band>  Solving the eigenvalue problem...
 KGrids1:  -0.44444  -0.33333  -0.22222  -0.11111   0.00000   0.11111   0.22222   0.33333   0.44445 
 KGrids2:   0.00000 
 KGrids3:  -0.44444  -0.33333  -0.22222  -0.11111   0.00000   0.11111   0.22222   0.33334   0.44445 
<Band_DFT>  Eigen, time=0.043657
<Band_DFT>  DM, time=0.062290
    1    C  MulP   1.9793  1.9793 sum   3.9587
    2    C  MulP   2.0207  2.0207 sum   4.0413
    3    C  MulP   2.0207  2.0207 sum   4.0413
    4    C  MulP   1.9793  1.9793 sum   3.9587
 Sum of MulP: up   =     8.00000 down          =     8.00000
              total=    16.00000 ideal(neutral)=    16.00000
<DFT>  Total Spin Moment (muB) =  0.000000000000
<DFT>  Mixing_weight= 0.002000000000
<DFT>  Uele   =   -5.465854107273  dUele     =   0.000000012435
<DFT>  NormRD =    0.000000287496  Criterion =   0.000000000100

******************* MD= 2  SCF=18 *******************
<Poisson>  Poisson's equation using FFT...
<Set_Hamiltonian>  Hamiltonian matrix for VNA+dVH+Vxc...
<Band>  Solving the eigenvalue problem...
 KGrids1:  -0.44444  -0.33333  -0.22222  -0.11111   0.00000   0.11111   0.22222   0.33333   0.44445 
 KGrids2:   0.00000 
 KGrids3:  -0.44444  -0.33333  -0.22222  -0.11111   0.00000   0.11111   0.22222   0.33334   0.44445 
<Band_DFT>  Eigen, time=0.043707
<Band_DFT>  DM, time=0.062367
    1    C  MulP   1.9793  1.9793 sum   3.9587
    2    C  MulP   2.0207  2.0207 sum   4.0413
    3    C  MulP   2.0207  2.0207 sum   4.0413
    4    C  MulP   1.9793  1.9793 sum   3.9587
 Sum of MulP: up   =     8.00000 down          =     8.00000
              total=    16.00000 ideal(neutral)=    16.00000
<DFT>  Total Spin Moment (muB) =  0.000000000000
<DFT>  Mixing_weight= 0.002000000000
<DFT>  Uele   =   -5.465854140514  dUele     =   0.000000033241
<DFT>  NormRD =    0.000000052986  Criterion =   0.000000000100

******************* MD= 2  SCF=19 *******************
<Poisson>  Poisson's equation using FFT...
<Set_Hamiltonian>  Hamiltonian matrix for VNA+dVH+Vxc...
<Band>  Solving the eigenvalue problem...
 KGrids1:  -0.44444  -0.33333  -0.22222  -0.11111   0.00000   0.11111   0.22222   0.33333   0.44445 
 KGrids2:   0.00000 
 KGrids3:  -0.44444  -0.33333  -0.22222  -0.11111   0.00000   0.11111   0.22222   0.33334   0.44445 
<Band_DFT>  Eigen, time=0.043761
<Band_DFT>  DM, time=0.062262
    1    C  MulP   1.9793  1.9793 sum   3.9587
    2    C  MulP   2.0207  2.0207 sum   4.0413
    3    C  MulP   2.0207  2.0207 sum   4.0413
    4    C  MulP   1.9793  1.9793 sum   3.9587
 Sum of MulP: up   =     8.00000 down          =     8.00000
              total=    16.00000 ideal(neutral)=    16.00000
<DFT>  Total Spin Moment (muB) =  0.000000000000
<DFT>  Mixing_weight= 0.002000000000
<DFT>  Uele   =   -5.465854135620  dUele     =   0.000000004894
<DFT>  NormRD =    0.000000004475  Criterion =   0.000000000100

******************* MD= 2  SCF=20 *******************
<Poisson>  Poisson's equation using FFT...
<Set_Hamiltonian>  Hamiltonian matrix for VNA+dVH+Vxc...
<Band>  Solving the eigenvalue problem...
 KGrids1:  -0.44444  -0.33333  -0.22222  -0.11111   0.00000   0.11111   0.22222   0.33333   0.44445 
 KGrids2:   0.00000 
 KGrids3:  -0.44444  -0.33333  -0.22222  -0.11111   0.00000   0.11111   0.22222   0.33334   0.44445 
<Band_DFT>  Eigen, time=0.043792
<Band_DFT>  DM, time=0.062221
    1    C  MulP   1.9793  1.9793 sum   3.9587
    2    C  MulP   2.0207  2.0207 sum   4.0413
    3    C  MulP   2.0207  2.0207 sum   4.0413
    4    C  MulP   1.9793  1.9793 sum   3.9587
 Sum of MulP: up   =     8.00000 down          =     8.00000
              total=    16.00000 ideal(neutral)=    16.00000
<DFT>  Total Spin Moment (muB) =  0.000000000000
<DFT>  Mixing_weight= 0.002000000000
<DFT>  Uele   =   -5.465854136152  dUele     =   0.000000000532
<DFT>  NormRD =    0.000000000812  Criterion =   0.000000000100

******************* MD= 2  SCF=21 *******************
<Poisson>  Poisson's equation using FFT...
<Set_Hamiltonian>  Hamiltonian matrix for VNA+dVH+Vxc...
<Band>  Solving the eigenvalue problem...
 KGrids1:  -0.44444  -0.33333  -0.22222  -0.11111   0.00000   0.11111   0.22222   0.33333   0.44445 
 KGrids2:   0.00000 
 KGrids3:  -0.44444  -0.33333  -0.22222  -0.11111   0.00000   0.11111   0.22222   0.33334   0.44445 
<Band_DFT>  Eigen, time=0.043750
<Band_DFT>  DM, time=0.062212
    1    C  MulP   1.9793  1.9793 sum   3.9587
    2    C  MulP   2.0207  2.0207 sum   4.0413
    3    C  MulP   2.0207  2.0207 sum   4.0413
    4    C  MulP   1.9793  1.9793 sum   3.9587
 Sum of MulP: up   =     8.00000 down          =     8.00000
              total=    16.00000 ideal(neutral)=    16.00000
<DFT>  Total Spin Moment (muB) =  0.000000000000
<DFT>  Mixing_weight= 0.002000000000
<DFT>  Uele   =   -5.465854136178  dUele     =   0.000000000026
<DFT>  NormRD =    0.000000000282  Criterion =   0.000000000100
Band_DFT_kpath start
kpath
1 ( 0.000000000000000  0.000000000000000  0.000000000000000)->( 0.000000000000000  0.500000000000000  0.500000000000000)
2 ( 0.000000000000000  0.500000000000000  0.500000000000000)->( 0.250000000000000  0.750000000000000  0.500000000000000)
3 ( 0.250000000000000  0.750000000000000  0.500000000000000)->( 0.500000000000000  0.500000000000000  0.500000000000000)
4 ( 0.500000000000000  0.500000000000000  0.500000000000000)->( 0.000000000000000  0.000000000000000  0.000000000000000)
5 ( 0.000000000000000  0.000000000000000  0.000000000000000)->( 0.375000000000000  0.750000000000000  0.375000000000000)
6 ( 0.375000000000000  0.750000000000000  0.375000000000000)->( 0.000000000000000  0.500000000000000  0.500000000000000)

<Band_DFT_Dosout>
 KGrids1: 0.000001 0.111112 0.222223 0.333334 0.444445 0.555557 0.666668 0.777779 0.888890 
 KGrids2: -0.000001 
 KGrids3: 0.000002 0.111113 0.222224 0.333335 0.444446 0.555558 0.666669 0.777780 0.888891 
 iemin and iemax= 1 37
 write eigenvalues
 write eigenvectors
<MD= 2>  Force calculation
  Force calculation #1
  Force calculation #2
  Force calculation #3
  Force calculation #4
  Force calculation #5
<MD= 2>  Total Energy
  Force calculation #6
  Force calculation #7

*******************************************************
                  Dipole moment (Debye)                 
*******************************************************

 Absolute D        0.50312071

                      Dx                Dy                Dz
 Total              0.50312065       -0.00025820       -0.00000000
 Core              86.45772237      199.65970020        0.00000000
 Electron         -85.95460173     -199.65995840       -0.00000000
 Back ground       -0.00000000       -0.00000000       -0.00000000

*******************************************************
                Total Energy (Hartree) at MD = 2        
*******************************************************

  Uele  =      -5.465854136178

  Ukin  =      12.371813843488
  UH0   =     -80.452829125283
  UH1   =       0.270960786301
  Una   =      -8.012470358532
  Unl   =      -0.208562549684
  Uxc0  =      -3.227968455842
  Uxc1  =      -3.227968455842
  Ucore =      60.195114450839
  Uhub  =       0.000000000000
  Ucs   =       0.000000000000
  Uzs   =       0.000000000000
  Uzo   =       0.000000000000
  Uef   =       0.000000000000
  UvdW  =       0.000000000000
  Utot  =     -22.291909864554

  Note:

  Utot = Ukin+UH0+UH1+Una+Unl+Uxc0+Uxc1+Ucore+Uhub+Ucs+Uzs+Uzo+Uef+UvdW

  Uele:   band energy
  Ukin:   kinetic energy
  UH0:    electric part of screened Coulomb energy
  UH1:    difference electron-electron Coulomb energy
  Una:    neutral atom potential energy
  Unl:    non-local potential energy
  Uxc0:   exchange-correlation energy for alpha spin
  Uxc1:   exchange-correlation energy for beta spin
  Ucore:  core-core Coulomb energy
  Uhub:   LDA+U energy
  Ucs:    constraint energy for spin orientation
  Uzs:    Zeeman term for spin magnetic moment
  Uzo:    Zeeman term for orbital magnetic moment
  Uef:    electric energy by electric field
  UvdW:   semi-empirical vdW energy 

  (see also PRB 72, 045121(2005) for the energy contributions)


*******************************************************
           Computational times (s) at MD = 2            
*******************************************************

  DFT in total      =   15.48486

  Set_OLP_Kin       =    0.53330
  Set_Nonlocal      =    0.81612
  Set_ProExpn_VNA   =    1.58977
  Set_Hamiltonian   =    2.86356
  Poisson           =    0.14106
  diagonalization   =    2.52290
  Mixing_DM         =    1.33597
  Force             =    3.00556
  Total_Energy      =    0.63413
  Set_Aden_Grid     =    0.02497
  Set_Orbitals_Grid =    0.05417
  Set_Density_Grid  =    0.63357
  RestartFileDFT    =    0.00238
  Mulliken_Charge   =    0.00207
  FFT(2D)_Density   =    0.13375

*******************************************************
             MD or geometry opt. at MD = 2              
*******************************************************

<Steepest_Descent>  SD_scaling= 1.259817322412
<Steepest_Descent>  |Maximum force| (Hartree/Bohr) = 0.037280383896
<Steepest_Descent>  Criterion       (Hartree/Bohr) = 0.000000001000

  atom=  1, XYZ(ang) Fxyz(a.u.)=   2.2500    0.0502   -0.0000     0.0000   -0.0373    0.0000
  atom=  2, XYZ(ang) Fxyz(a.u.)=   0.0000    1.3063    0.0000    -0.0000   -0.0060   -0.0000
  atom=  3, XYZ(ang) Fxyz(a.u.)=   0.0000    3.8897   -0.0000    -0.0000    0.0060    0.0000
  atom=  4, XYZ(ang) Fxyz(a.u.)=   2.2500    5.1458    0.0000     0.0000    0.0373   -0.0000

*******************************************************
        Analysis of neighbors and setting of grids        
*******************************************************


*******************************************************
  Allocation of atoms to proccesors at MD_iter=    3     
*******************************************************

 proc =   0  # of atoms=   1  estimated weight=         1.00000
 proc =   1  # of atoms=   1  estimated weight=         1.00000
 proc =   2  # of atoms=   1  estimated weight=         1.00000
 proc =   3  # of atoms=   1  estimated weight=         1.00000
 proc =   4  # of atoms=   0  estimated weight=         0.00000
 proc =   5  # of atoms=   0  estimated weight=         0.00000
 proc =   6  # of atoms=   0  estimated weight=         0.00000



TFNAN=      60   Average FNAN=  15.00000
TSNAN=       0   Average SNAN=   0.00000
<truncation> CpyCell= 2 ct_AN=   1 FNAN SNAN  13   0
<truncation> CpyCell= 2 ct_AN=   2 FNAN SNAN  17   0
<truncation> CpyCell= 2 ct_AN=   3 FNAN SNAN  17   0
<truncation> CpyCell= 2 ct_AN=   4 FNAN SNAN  13   0
<UCell_Box> Info. of cutoff energy and num. of grids
lattice vectors (bohr)
A  =  8.503766948605,  0.000000000000,  0.000000000000
B  =  0.000000000000, 37.794519771578,  0.000000000000
C  =  0.000000000000,  0.000000000000,  8.503766948605
reciprocal lattice vectors (bohr^-1)
RA =  0.738870825736,  0.000000000000,  0.000000000000
RB =  0.000000000000,  0.166245935791,  0.000000000000
RC =  0.000000000000,  0.000000000000,  0.738870825736
Required cutoff energy (Ryd) for 3D-grids = 180.0000
    Used cutoff energy (Ryd) for 3D-grids = 176.8814, 181.3310, 176.8814
Num. of grids of a-, b-, and c-axes = 36, 162, 36
Cell_Volume =   2733.074880027181 (Bohr^3)
GridVol     =      0.013017617741 (Bohr^3)
Cell vectors (bohr) of the grid cell (gtv)
  gtv_a =  0.236215748572,  0.000000000000,  0.000000000000
  gtv_b =  0.000000000000,  0.233299504763,  0.000000000000
  gtv_c =  0.000000000000,  0.000000000000,  0.236215748572
  |gtv_a| =  0.236215748572
  |gtv_b| =  0.233299504763
  |gtv_c| =  0.236215748572
Num. of grids overlapping with atom    1 = 40244
Num. of grids overlapping with atom    2 = 40300
Num. of grids overlapping with atom    3 = 40300
Num. of grids overlapping with atom    4 = 40244

*******************************************************
             SCF calculation at MD = 3                
*******************************************************

<MD= 3>  Calculation of the overlap matrix
<MD= 3>  Calculation of the nonlocal matrix
<MD= 3>  Calculation of the VNA projector matrix

******************* MD= 3  SCF= 1 *******************
<Restart>  Found restart files
<Poisson>  Poisson's equation using FFT...
<Band>  Solving the eigenvalue problem...
 KGrids1:  -0.44444  -0.33333  -0.22222  -0.11111   0.00000   0.11111   0.22222   0.33333   0.44445 
 KGrids2:   0.00000 
 KGrids3:  -0.44444  -0.33333  -0.22222  -0.11111   0.00000   0.11111   0.22222   0.33334   0.44445 
<Band_DFT>  Eigen, time=0.043755
<Band_DFT>  DM, time=0.062187
    1    C  MulP   1.9812  1.9812 sum   3.9624
    2    C  MulP   2.0188  2.0188 sum   4.0376
    3    C  MulP   2.0188  2.0188 sum   4.0376
    4    C  MulP   1.9812  1.9812 sum   3.9624
 Sum of MulP: up   =     8.00000 down          =     8.00000
              total=    16.00000 ideal(neutral)=    16.00000
<DFT>  Total Spin Moment (muB) =  0.000000000000
<DFT>  Mixing_weight= 0.020000000000
<DFT>  Uele   =   -5.472817953972  dUele     =   1.000000000000
<DFT>  NormRD =    1.000000000000  Criterion =   0.000000000100

******************* MD= 3  SCF= 2 *******************
<Poisson>  Poisson's equation using FFT...
<Set_Hamiltonian>  Hamiltonian matrix for VNA+dVH+Vxc...
<Band>  Solving the eigenvalue problem...
 KGrids1:  -0.44444  -0.33333  -0.22222  -0.11111   0.00000   0.11111   0.22222   0.33333   0.44445 
 KGrids2:   0.00000 
 KGrids3:  -0.44444  -0.33333  -0.22222  -0.11111   0.00000   0.11111   0.22222   0.33334   0.44445 
<Band_DFT>  Eigen, time=0.043744
<Band_DFT>  DM, time=0.062233
    1    C  MulP   1.9806  1.9806 sum   3.9611
    2    C  MulP   2.0194  2.0194 sum   4.0389
    3    C  MulP   2.0194  2.0194 sum   4.0389
    4    C  MulP   1.9806  1.9806 sum   3.9611
 Sum of MulP: up   =     8.00000 down          =     8.00000
              total=    16.00000 ideal(neutral)=    16.00000
<DFT>  Total Spin Moment (muB) =  0.000000000000
<DFT>  Mixing_weight= 0.020000000000
<DFT>  Uele   =   -5.472848048821  dUele     =   0.000030094850
<DFT>  NormRD =    0.120071734437  Criterion =   0.000000000100

******************* MD= 3  SCF= 3 *******************
<Poisson>  Poisson's equation using FFT...
<Set_Hamiltonian>  Hamiltonian matrix for VNA+dVH+Vxc...
<Band>  Solving the eigenvalue problem...
 KGrids1:  -0.44444  -0.33333  -0.22222  -0.11111   0.00000   0.11111   0.22222   0.33333   0.44445 
 KGrids2:   0.00000 
 KGrids3:  -0.44444  -0.33333  -0.22222  -0.11111   0.00000   0.11111   0.22222   0.33334   0.44445 
<Band_DFT>  Eigen, time=0.043737
<Band_DFT>  DM, time=0.062220
    1    C  MulP   1.9801  1.9801 sum   3.9601
    2    C  MulP   2.0199  2.0199 sum   4.0399
    3    C  MulP   2.0199  2.0199 sum   4.0399
    4    C  MulP   1.9801  1.9801 sum   3.9601
 Sum of MulP: up   =     8.00000 down          =     8.00000
              total=    16.00000 ideal(neutral)=    16.00000
<DFT>  Total Spin Moment (muB) =  0.000000000000
<DFT>  Mixing_weight= 0.020000000000
<DFT>  Uele   =   -5.472870087282  dUele     =   0.000022038461
<DFT>  NormRD =    0.116564903835  Criterion =   0.000000000100

******************* MD= 3  SCF= 4 *******************
<Poisson>  Poisson's equation using FFT...
<Set_Hamiltonian>  Hamiltonian matrix for VNA+dVH+Vxc...
<Band>  Solving the eigenvalue problem...
 KGrids1:  -0.44444  -0.33333  -0.22222  -0.11111   0.00000   0.11111   0.22222   0.33333   0.44445 
 KGrids2:   0.00000 
 KGrids3:  -0.44444  -0.33333  -0.22222  -0.11111   0.00000   0.11111   0.22222   0.33334   0.44445 
<Band_DFT>  Eigen, time=0.043784
<Band_DFT>  DM, time=0.062238
    1    C  MulP   1.9797  1.9797 sum   3.9593
    2    C  MulP   2.0203  2.0203 sum   4.0407
    3    C  MulP   2.0203  2.0203 sum   4.0407
    4    C  MulP   1.9797  1.9797 sum   3.9593
 Sum of MulP: up   =     8.00000 down          =     8.00000
              total=    16.00000 ideal(neutral)=    16.00000
<DFT>  Total Spin Moment (muB) =  0.000000000000
<DFT>  Mixing_weight= 0.020000000000
<DFT>  Uele   =   -5.472885446562  dUele     =   0.000015359279
<DFT>  NormRD =    0.113234870371  Criterion =   0.000000000100

******************* MD= 3  SCF= 5 *******************
<Poisson>  Poisson's equation using FFT...
<Set_Hamiltonian>  Hamiltonian matrix for VNA+dVH+Vxc...
<Band>  Solving the eigenvalue problem...
 KGrids1:  -0.44444  -0.33333  -0.22222  -0.11111   0.00000   0.11111   0.22222   0.33333   0.44445 
 KGrids2:   0.00000 
 KGrids3:  -0.44444  -0.33333  -0.22222  -0.11111   0.00000   0.11111   0.22222   0.33334   0.44445 
<Band_DFT>  Eigen, time=0.043754
<Band_DFT>  DM, time=0.062246
    1    C  MulP   1.9793  1.9793 sum   3.9586
    2    C  MulP   2.0207  2.0207 sum   4.0414
    3    C  MulP   2.0207  2.0207 sum   4.0414
    4    C  MulP   1.9793  1.9793 sum   3.9586
 Sum of MulP: up   =     8.00000 down          =     8.00000
              total=    16.00000 ideal(neutral)=    16.00000
<DFT>  Total Spin Moment (muB) =  0.000000000000
<DFT>  Mixing_weight= 0.020000000000
<DFT>  Uele   =   -5.472895263585  dUele     =   0.000009817023
<DFT>  NormRD =    0.110052280725  Criterion =   0.000000000100

******************* MD= 3  SCF= 6 *******************
<Poisson>  Poisson's equation using FFT...
<Set_Hamiltonian>  Hamiltonian matrix for VNA+dVH+Vxc...
<Band>  Solving the eigenvalue problem...
 KGrids1:  -0.44444  -0.33333  -0.22222  -0.11111   0.00000   0.11111   0.22222   0.33333   0.44445 
 KGrids2:   0.00000 
 KGrids3:  -0.44444  -0.33333  -0.22222  -0.11111   0.00000   0.11111   0.22222   0.33334   0.44445 
<Band_DFT>  Eigen, time=0.043882
<Band_DFT>  DM, time=0.062204
    1    C  MulP   1.9791  1.9791 sum   3.9581
    2    C  MulP   2.0209  2.0209 sum   4.0419
    3    C  MulP   2.0209  2.0209 sum   4.0419
    4    C  MulP   1.9791  1.9791 sum   3.9581
 Sum of MulP: up   =     8.00000 down          =     8.00000
              total=    16.00000 ideal(neutral)=    16.00000
<DFT>  Total Spin Moment (muB) =  0.000000000000
<DFT>  Mixing_weight= 0.020000000000
<DFT>  Uele   =   -5.472900474941  dUele     =   0.000005211356
<DFT>  NormRD =    0.106996187776  Criterion =   0.000000000100

******************* MD= 3  SCF= 7 *******************
<Poisson>  Poisson's equation using FFT...
<Set_Hamiltonian>  Hamiltonian matrix for VNA+dVH+Vxc...
<Band>  Solving the eigenvalue problem...
 KGrids1:  -0.44444  -0.33333  -0.22222  -0.11111   0.00000   0.11111   0.22222   0.33333   0.44445 
 KGrids2:   0.00000 
 KGrids3:  -0.44444  -0.33333  -0.22222  -0.11111   0.00000   0.11111   0.22222   0.33334   0.44445 
<Band_DFT>  Eigen, time=0.043877
<Band_DFT>  DM, time=0.062208
    1    C  MulP   1.9789  1.9789 sum   3.9577
    2    C  MulP   2.0211  2.0211 sum   4.0423
    3    C  MulP   2.0211  2.0211 sum   4.0423
    4    C  MulP   1.9789  1.9789 sum   3.9577
 Sum of MulP: up   =     8.00000 down          =     8.00000
              total=    16.00000 ideal(neutral)=    16.00000
<DFT>  Total Spin Moment (muB) =  0.000000000000
<DFT>  Mixing_weight= 0.002000000000
<DFT>  Uele   =   -5.472901852254  dUele     =   0.000001377314
<DFT>  NormRD =    0.104051454493  Criterion =   0.000000000100

******************* MD= 3  SCF= 8 *******************
<Poisson>  Poisson's equation using FFT...
<Set_Hamiltonian>  Hamiltonian matrix for VNA+dVH+Vxc...
<Band>  Solving the eigenvalue problem...
 KGrids1:  -0.44444  -0.33333  -0.22222  -0.11111   0.00000   0.11111   0.22222   0.33333   0.44445 
 KGrids2:   0.00000 
 KGrids3:  -0.44444  -0.33333  -0.22222  -0.11111   0.00000   0.11111   0.22222   0.33334   0.44445 
<Band_DFT>  Eigen, time=0.043753
<Band_DFT>  DM, time=0.062234
    1    C  MulP   2.0275  2.0275 sum   4.0551
    2    C  MulP   1.9725  1.9725 sum   3.9449
    3    C  MulP   1.9725  1.9725 sum   3.9449
    4    C  MulP   2.0275  2.0275 sum   4.0551
 Sum of MulP: up   =     8.00000 down          =     8.00000
              total=    16.00000 ideal(neutral)=    16.00000
<DFT>  Total Spin Moment (muB) =  0.000000000000
<DFT>  Mixing_weight= 0.002000000000
<DFT>  Uele   =   -5.458489291686  dUele     =   0.014412560569
<DFT>  NormRD =    0.235808249516  Criterion =   0.000000000100

******************* MD= 3  SCF= 9 *******************
<Poisson>  Poisson's equation using FFT...
<Set_Hamiltonian>  Hamiltonian matrix for VNA+dVH+Vxc...
<Band>  Solving the eigenvalue problem...
 KGrids1:  -0.44444  -0.33333  -0.22222  -0.11111   0.00000   0.11111   0.22222   0.33333   0.44445 
 KGrids2:   0.00000 
 KGrids3:  -0.44444  -0.33333  -0.22222  -0.11111   0.00000   0.11111   0.22222   0.33334   0.44445 
<Band_DFT>  Eigen, time=0.043781
<Band_DFT>  DM, time=0.062176
    1    C  MulP   1.9798  1.9798 sum   3.9595
    2    C  MulP   2.0202  2.0202 sum   4.0405
    3    C  MulP   2.0202  2.0202 sum   4.0405
    4    C  MulP   1.9798  1.9798 sum   3.9595
 Sum of MulP: up   =     8.00000 down          =     8.00000
              total=    16.00000 ideal(neutral)=    16.00000
<DFT>  Total Spin Moment (muB) =  0.000000000000
<DFT>  Mixing_weight= 0.002000000000
<DFT>  Uele   =   -5.469371741994  dUele     =   0.010882450308
<DFT>  NormRD =    0.007708878862  Criterion =   0.000000000100

******************* MD= 3  SCF=10 *******************
<Poisson>  Poisson's equation using FFT...
<Set_Hamiltonian>  Hamiltonian matrix for VNA+dVH+Vxc...
<Band>  Solving the eigenvalue problem...
 KGrids1:  -0.44444  -0.33333  -0.22222  -0.11111   0.00000   0.11111   0.22222   0.33333   0.44445 
 KGrids2:   0.00000 
 KGrids3:  -0.44444  -0.33333  -0.22222  -0.11111   0.00000   0.11111   0.22222   0.33334   0.44445 
<Band_DFT>  Eigen, time=0.043721
<Band_DFT>  DM, time=0.062193
    1    C  MulP   1.9786  1.9786 sum   3.9572
    2    C  MulP   2.0214  2.0214 sum   4.0428
    3    C  MulP   2.0214  2.0214 sum   4.0428
    4    C  MulP   1.9786  1.9786 sum   3.9572
 Sum of MulP: up   =     8.00000 down          =     8.00000
              total=    16.00000 ideal(neutral)=    16.00000
<DFT>  Total Spin Moment (muB) =  0.000000000000
<DFT>  Mixing_weight= 0.002000000000
<DFT>  Uele   =   -5.470247878349  dUele     =   0.000876136355
<DFT>  NormRD =    0.001497631552  Criterion =   0.000000000100

******************* MD= 3  SCF=11 *******************
<Poisson>  Poisson's equation using FFT...
<Set_Hamiltonian>  Hamiltonian matrix for VNA+dVH+Vxc...
<Band>  Solving the eigenvalue problem...
 KGrids1:  -0.44444  -0.33333  -0.22222  -0.11111   0.00000   0.11111   0.22222   0.33333   0.44445 
 KGrids2:   0.00000 
 KGrids3:  -0.44444  -0.33333  -0.22222  -0.11111   0.00000   0.11111   0.22222   0.33334   0.44445 
<Band_DFT>  Eigen, time=0.043838
<Band_DFT>  DM, time=0.062089
    1    C  MulP   1.9787  1.9787 sum   3.9575
    2    C  MulP   2.0213  2.0213 sum   4.0425
    3    C  MulP   2.0213  2.0213 sum   4.0425
    4    C  MulP   1.9787  1.9787 sum   3.9575
 Sum of MulP: up   =     8.00000 down          =     8.00000
              total=    16.00000 ideal(neutral)=    16.00000
<DFT>  Total Spin Moment (muB) =  0.000000000000
<DFT>  Mixing_weight= 0.002000000000
<DFT>  Uele   =   -5.470196867436  dUele     =   0.000051010913
<DFT>  NormRD =    0.000530592201  Criterion =   0.000000000100

******************* MD= 3  SCF=12 *******************
<Poisson>  Poisson's equation using FFT...
<Set_Hamiltonian>  Hamiltonian matrix for VNA+dVH+Vxc...
<Band>  Solving the eigenvalue problem...
 KGrids1:  -0.44444  -0.33333  -0.22222  -0.11111   0.00000   0.11111   0.22222   0.33333   0.44445 
 KGrids2:   0.00000 
 KGrids3:  -0.44444  -0.33333  -0.22222  -0.11111   0.00000   0.11111   0.22222   0.33334   0.44445 
<Band_DFT>  Eigen, time=0.043668
<Band_DFT>  DM, time=0.062106
    1    C  MulP   1.9788  1.9788 sum   3.9575
    2    C  MulP   2.0212  2.0212 sum   4.0425
    3    C  MulP   2.0212  2.0212 sum   4.0425
    4    C  MulP   1.9788  1.9788 sum   3.9575
 Sum of MulP: up   =     8.00000 down          =     8.00000
              total=    16.00000 ideal(neutral)=    16.00000
<DFT>  Total Spin Moment (muB) =  0.000000000000
<DFT>  Mixing_weight= 0.002000000000
<DFT>  Uele   =   -5.470266106772  dUele     =   0.000069239336
<DFT>  NormRD =    0.000310560102  Criterion =   0.000000000100

******************* MD= 3  SCF=13 *******************
<Poisson>  Poisson's equation using FFT...
<Set_Hamiltonian>  Hamiltonian matrix for VNA+dVH+Vxc...
<Band>  Solving the eigenvalue problem...
 KGrids1:  -0.44444  -0.33333  -0.22222  -0.11111   0.00000   0.11111   0.22222   0.33333   0.44445 
 KGrids2:   0.00000 
 KGrids3:  -0.44444  -0.33333  -0.22222  -0.11111   0.00000   0.11111   0.22222   0.33334   0.44445 
<Band_DFT>  Eigen, time=0.043694
<Band_DFT>  DM, time=0.062104
    1    C  MulP   1.9791  1.9791 sum   3.9581
[...]
<DFT>  Mixing_weight= 0.002000000000
<DFT>  Uele   =   -6.861819513801  dUele     =   0.000000006392
<DFT>  NormRD =    0.000000003332  Criterion =   0.000000000100

******************* MD=37  SCF=23 *******************
<Poisson>  Poisson's equation using FFT...
<Set_Hamiltonian>  Hamiltonian matrix for VNA+dVH+Vxc...
<Band>  Solving the eigenvalue problem...
 KGrids1:  -0.44444  -0.33333  -0.22222  -0.11111   0.00000   0.11111   0.22222   0.33333   0.44445 
 KGrids2:   0.00000 
 KGrids3:  -0.44444  -0.33333  -0.22222  -0.11111   0.00000   0.11111   0.22222   0.33334   0.44445 
<Band_DFT>  Eigen, time=0.044663
<Band_DFT>  DM, time=0.065177
    1    C  MulP   2.0121  2.0121 sum   4.0243
    2    C  MulP   1.9879  1.9879 sum   3.9757
    3    C  MulP   1.9879  1.9879 sum   3.9757
    4    C  MulP   2.0121  2.0121 sum   4.0243
 Sum of MulP: up   =     8.00000 down          =     8.00000
              total=    16.00000 ideal(neutral)=    16.00000
<DFT>  Total Spin Moment (muB) =  0.000000000000
<DFT>  Mixing_weight= 0.002000000000
<DFT>  Uele   =   -6.861819513403  dUele     =   0.000000000398
<DFT>  NormRD =    0.000000000355  Criterion =   0.000000000100

******************* MD=37  SCF=24 *******************
<Poisson>  Poisson's equation using FFT...
<Set_Hamiltonian>  Hamiltonian matrix for VNA+dVH+Vxc...
<Band>  Solving the eigenvalue problem...
 KGrids1:  -0.44444  -0.33333  -0.22222  -0.11111   0.00000   0.11111   0.22222   0.33333   0.44445 
 KGrids2:   0.00000 
 KGrids3:  -0.44444  -0.33333  -0.22222  -0.11111   0.00000   0.11111   0.22222   0.33334   0.44445 
<Band_DFT>  Eigen, time=0.044684
<Band_DFT>  DM, time=0.065236
    1    C  MulP   2.0121  2.0121 sum   4.0243
    2    C  MulP   1.9879  1.9879 sum   3.9757
    3    C  MulP   1.9879  1.9879 sum   3.9757
    4    C  MulP   2.0121  2.0121 sum   4.0243
 Sum of MulP: up   =     8.00000 down          =     8.00000
              total=    16.00000 ideal(neutral)=    16.00000
<DFT>  Total Spin Moment (muB) =  0.000000000000
<DFT>  Mixing_weight= 0.002000000000
<DFT>  Uele   =   -6.861819513373  dUele     =   0.000000000031
<DFT>  NormRD =    0.000000000189  Criterion =   0.000000000100
Band_DFT_kpath start
kpath
1 ( 0.000000000000000  0.000000000000000  0.000000000000000)->( 0.000000000000000  0.500000000000000  0.500000000000000)
2 ( 0.000000000000000  0.500000000000000  0.500000000000000)->( 0.250000000000000  0.750000000000000  0.500000000000000)
3 ( 0.250000000000000  0.750000000000000  0.500000000000000)->( 0.500000000000000  0.500000000000000  0.500000000000000)
4 ( 0.500000000000000  0.500000000000000  0.500000000000000)->( 0.000000000000000  0.000000000000000  0.000000000000000)
5 ( 0.000000000000000  0.000000000000000  0.000000000000000)->( 0.375000000000000  0.750000000000000  0.375000000000000)
6 ( 0.375000000000000  0.750000000000000  0.375000000000000)->( 0.000000000000000  0.500000000000000  0.500000000000000)

<Band_DFT_Dosout>
 KGrids1: 0.000001 0.111112 0.222223 0.333334 0.444445 0.555557 0.666668 0.777779 0.888890 
 KGrids2: -0.000001 
 KGrids3: 0.000002 0.111113 0.222224 0.333335 0.444446 0.555558 0.666669 0.777780 0.888891 
 iemin and iemax= 1 30
 write eigenvalues
 write eigenvectors
<MD=37>  Force calculation
  Force calculation #1
  Force calculation #2
  Force calculation #3
  Force calculation #4
  Force calculation #5
<MD=37>  Total Energy
  Force calculation #6
  Force calculation #7

*******************************************************
                  Dipole moment (Debye)                 
*******************************************************

 Absolute D        1.17975460

                      Dx                Dy                Dz
 Total             -1.17975459       -0.00014811        0.00000000
 Core              86.45781486      199.65971188        0.00000015
 Electron         -87.63756945     -199.65985999       -0.00000015
 Back ground       -0.00000000       -0.00000000       -0.00000000

*******************************************************
                Total Energy (Hartree) at MD =37        
*******************************************************

  Uele  =      -6.861819513373

  Ukin  =      14.632925014236
  UH0   =    -116.707283700239
  UH1   =       0.156901255759
  Una   =     -10.023530825388
  Unl   =      -1.108489855116
  Uxc0  =      -3.582002616645
  Uxc1  =      -3.582002616645
  Ucore =      97.452827512418
  Uhub  =       0.000000000000
  Ucs   =       0.000000000000
  Uzs   =       0.000000000000
  Uzo   =       0.000000000000
  Uef   =       0.000000000000
  UvdW  =       0.000000000000
  Utot  =     -22.760655831620

  Note:

  Utot = Ukin+UH0+UH1+Una+Unl+Uxc0+Uxc1+Ucore+Uhub+Ucs+Uzs+Uzo+Uef+UvdW

  Uele:   band energy
  Ukin:   kinetic energy
  UH0:    electric part of screened Coulomb energy
  UH1:    difference electron-electron Coulomb energy
  Una:    neutral atom potential energy
  Unl:    non-local potential energy
  Uxc0:   exchange-correlation energy for alpha spin
  Uxc1:   exchange-correlation energy for beta spin
  Ucore:  core-core Coulomb energy
  Uhub:   LDA+U energy
  Ucs:    constraint energy for spin orientation
  Uzs:    Zeeman term for spin magnetic moment
  Uzo:    Zeeman term for orbital magnetic moment
  Uef:    electric energy by electric field
  UvdW:   semi-empirical vdW energy 

  (see also PRB 72, 045121(2005) for the energy contributions)


*******************************************************
           Computational times (s) at MD =37            
*******************************************************

  DFT in total      =   17.28676

  Set_OLP_Kin       =    0.62987
  Set_Nonlocal      =    1.00192
  Set_ProExpn_VNA   =    1.45175
  Set_Hamiltonian   =    4.50299
  Poisson           =    0.15827
  diagonalization   =    2.98261
  Mixing_DM         =    1.75247
  Force             =    1.57900
  Total_Energy      =    0.72281
  Set_Aden_Grid     =    0.02613
  Set_Orbitals_Grid =    0.08463
  Set_Density_Grid  =    1.03771
  RestartFileDFT    =    0.00294
  Mulliken_Charge   =    0.00238
  FFT(2D)_Density   =    0.14837

*******************************************************
             MD or geometry opt. at MD =37              
*******************************************************

<Steepest_Descent>  SD_scaling= 2.460580707835
<Steepest_Descent>  |Maximum force| (Hartree/Bohr) = 0.378417443469
<Steepest_Descent>  Criterion       (Hartree/Bohr) = 0.000000001000

  atom=  1, XYZ(ang) Fxyz(a.u.)=   2.2506    1.9339    0.0000    -0.0005    0.3784   -0.0000
  atom=  2, XYZ(ang) Fxyz(a.u.)=  -0.0006    1.8967    0.0000     0.0001   -0.1066   -0.0000
  atom=  3, XYZ(ang) Fxyz(a.u.)=   0.0005    3.2993   -0.0000    -0.0001    0.1066   -0.0000
  atom=  4, XYZ(ang) Fxyz(a.u.)=   2.2495    3.2621    0.0000     0.0005   -0.3784    0.0000

*******************************************************
        Analysis of neighbors and setting of grids        
*******************************************************


*******************************************************
  Allocation of atoms to proccesors at MD_iter=   38     
*******************************************************

 proc =   0  # of atoms=   1  estimated weight=         1.00000
 proc =   1  # of atoms=   1  estimated weight=         1.00000
 proc =   2  # of atoms=   1  estimated weight=         1.00000
 proc =   3  # of atoms=   1  estimated weight=         1.00000
 proc =   4  # of atoms=   0  estimated weight=         0.00000
 proc =   5  # of atoms=   0  estimated weight=         0.00000
 proc =   6  # of atoms=   0  estimated weight=         0.00000



TFNAN=      84   Average FNAN=  21.00000
TSNAN=       0   Average SNAN=   0.00000
<truncation> CpyCell= 2 ct_AN=   1 FNAN SNAN  21   0
<truncation> CpyCell= 2 ct_AN=   2 FNAN SNAN  21   0
<truncation> CpyCell= 2 ct_AN=   3 FNAN SNAN  21   0
<truncation> CpyCell= 2 ct_AN=   4 FNAN SNAN  21   0
<UCell_Box> Info. of cutoff energy and num. of grids
lattice vectors (bohr)
A  =  8.503766948605,  0.000000000000,  0.000000000000
B  =  0.000000000000, 37.794519771578,  0.000000000000
C  =  0.000000000000,  0.000000000000,  8.503766948605
reciprocal lattice vectors (bohr^-1)
RA =  0.738870825736,  0.000000000000,  0.000000000000
RB =  0.000000000000,  0.166245935791,  0.000000000000
RC =  0.000000000000,  0.000000000000,  0.738870825736
Required cutoff energy (Ryd) for 3D-grids = 180.0000
    Used cutoff energy (Ryd) for 3D-grids = 176.8814, 181.3310, 176.8814
Num. of grids of a-, b-, and c-axes = 36, 162, 36
Cell_Volume =   2733.074880027181 (Bohr^3)
GridVol     =      0.013017617741 (Bohr^3)
Cell vectors (bohr) of the grid cell (gtv)
  gtv_a =  0.236215748572,  0.000000000000,  0.000000000000
  gtv_b =  0.000000000000,  0.233299504763,  0.000000000000
  gtv_c =  0.000000000000,  0.000000000000,  0.236215748572
  |gtv_a| =  0.236215748572
  |gtv_b| =  0.233299504763
  |gtv_c| =  0.236215748572
Num. of grids overlapping with atom    1 = 40258
Num. of grids overlapping with atom    2 = 40210
Num. of grids overlapping with atom    3 = 40210
Num. of grids overlapping with atom    4 = 40258

*******************************************************
             SCF calculation at MD =38                
*******************************************************

<MD=38>  Calculation of the overlap matrix
<MD=38>  Calculation of the nonlocal matrix
<MD=38>  Calculation of the VNA projector matrix

******************* MD=38  SCF= 1 *******************
<Restart>  Found restart files
<Poisson>  Poisson's equation using FFT...
<Band>  Solving the eigenvalue problem...
 KGrids1:  -0.44444  -0.33333  -0.22222  -0.11111   0.00000   0.11111   0.22222   0.33333   0.44445 
 KGrids2:   0.00000 
 KGrids3:  -0.44444  -0.33333  -0.22222  -0.11111   0.00000   0.11111   0.22222   0.33334   0.44445 
<Band_DFT>  Eigen, time=0.044556
<Band_DFT>  DM, time=0.065300
    1    C  MulP   1.9800  1.9800 sum   3.9601
    2    C  MulP   2.0200  2.0200 sum   4.0399
    3    C  MulP   2.0200  2.0200 sum   4.0399
    4    C  MulP   1.9800  1.9800 sum   3.9601
 Sum of MulP: up   =     8.00000 down          =     8.00000
              total=    16.00000 ideal(neutral)=    16.00000
<DFT>  Total Spin Moment (muB) =  0.000000000000
<DFT>  Mixing_weight= 0.020000000000
<DFT>  Uele   =   -6.709748100545  dUele     =   1.000000000000
<DFT>  NormRD =    1.000000000000  Criterion =   0.000000000100

******************* MD=38  SCF= 2 *******************
<Poisson>  Poisson's equation using FFT...
<Set_Hamiltonian>  Hamiltonian matrix for VNA+dVH+Vxc...
<Band>  Solving the eigenvalue problem...
 KGrids1:  -0.44444  -0.33333  -0.22222  -0.11111   0.00000   0.11111   0.22222   0.33333   0.44445 
 KGrids2:   0.00000 
 KGrids3:  -0.44444  -0.33333  -0.22222  -0.11111   0.00000   0.11111   0.22222   0.33334   0.44445 
<Band_DFT>  Eigen, time=0.044592
<Band_DFT>  DM, time=0.065396
    1    C  MulP   1.9818  1.9818 sum   3.9637
    2    C  MulP   2.0182  2.0182 sum   4.0363
    3    C  MulP   2.0182  2.0182 sum   4.0363
    4    C  MulP   1.9818  1.9818 sum   3.9637
 Sum of MulP: up   =     8.00000 down          =     8.00000
              total=    16.00000 ideal(neutral)=    16.00000
<DFT>  Total Spin Moment (muB) =  0.000000000000
<DFT>  Mixing_weight= 0.020000000000
<DFT>  Uele   =   -6.710761482265  dUele     =   0.001013381720
<DFT>  NormRD =    0.278876116582  Criterion =   0.000000000100

******************* MD=38  SCF= 3 *******************
<Poisson>  Poisson's equation using FFT...
<Set_Hamiltonian>  Hamiltonian matrix for VNA+dVH+Vxc...
<Band>  Solving the eigenvalue problem...
 KGrids1:  -0.44444  -0.33333  -0.22222  -0.11111   0.00000   0.11111   0.22222   0.33333   0.44445 
 KGrids2:   0.00000 
 KGrids3:  -0.44444  -0.33333  -0.22222  -0.11111   0.00000   0.11111   0.22222   0.33334   0.44445 
<Band_DFT>  Eigen, time=0.044491
<Band_DFT>  DM, time=0.065293
    1    C  MulP   1.9835  1.9835 sum   3.9670
    2    C  MulP   2.0165  2.0165 sum   4.0330
    3    C  MulP   2.0165  2.0165 sum   4.0330
    4    C  MulP   1.9835  1.9835 sum   3.9670
 Sum of MulP: up   =     8.00000 down          =     8.00000
              total=    16.00000 ideal(neutral)=    16.00000
<DFT>  Total Spin Moment (muB) =  0.000000000000
<DFT>  Mixing_weight= 0.020000000000
<DFT>  Uele   =   -6.711757198841  dUele     =   0.000995716576
<DFT>  NormRD =    0.269380439488  Criterion =   0.000000000100

******************* MD=38  SCF= 4 *******************
<Poisson>  Poisson's equation using FFT...
<Set_Hamiltonian>  Hamiltonian matrix for VNA+dVH+Vxc...
<Band>  Solving the eigenvalue problem...
 KGrids1:  -0.44444  -0.33333  -0.22222  -0.11111   0.00000   0.11111   0.22222   0.33333   0.44445 
 KGrids2:   0.00000 
 KGrids3:  -0.44444  -0.33333  -0.22222  -0.11111   0.00000   0.11111   0.22222   0.33334   0.44445 
<Band_DFT>  Eigen, time=0.044462
<Band_DFT>  DM, time=0.065328
    1    C  MulP   1.9850  1.9850 sum   3.9700
    2    C  MulP   2.0150  2.0150 sum   4.0300
    3    C  MulP   2.0150  2.0150 sum   4.0300
    4    C  MulP   1.9850  1.9850 sum   3.9700
 Sum of MulP: up   =     8.00000 down          =     8.00000
              total=    16.00000 ideal(neutral)=    16.00000
<DFT>  Total Spin Moment (muB) =  0.000000000000
<DFT>  Mixing_weight= 0.020000000000
<DFT>  Uele   =   -6.712735182315  dUele     =   0.000977983474
<DFT>  NormRD =    0.260479457084  Criterion =   0.000000000100

******************* MD=38  SCF= 5 *******************
<Poisson>  Poisson's equation using FFT...
<Set_Hamiltonian>  Hamiltonian matrix for VNA+dVH+Vxc...
<Band>  Solving the eigenvalue problem...
 KGrids1:  -0.44444  -0.33333  -0.22222  -0.11111   0.00000   0.11111   0.22222   0.33333   0.44445 
 KGrids2:   0.00000 
 KGrids3:  -0.44444  -0.33333  -0.22222  -0.11111   0.00000   0.11111   0.22222   0.33334   0.44445 
<Band_DFT>  Eigen, time=0.044579
<Band_DFT>  DM, time=0.065351
    1    C  MulP   1.9864  1.9864 sum   3.9728
    2    C  MulP   2.0136  2.0136 sum   4.0272
    3    C  MulP   2.0136  2.0136 sum   4.0272
    4    C  MulP   1.9864  1.9864 sum   3.9728
 Sum of MulP: up   =     8.00000 down          =     8.00000
              total=    16.00000 ideal(neutral)=    16.00000
<DFT>  Total Spin Moment (muB) =  0.000000000000
<DFT>  Mixing_weight= 0.020000000000
<DFT>  Uele   =   -6.713695464458  dUele     =   0.000960282143
<DFT>  NormRD =    0.252110420615  Criterion =   0.000000000100

******************* MD=38  SCF= 6 *******************
<Poisson>  Poisson's equation using FFT...
<Set_Hamiltonian>  Hamiltonian matrix for VNA+dVH+Vxc...
<Band>  Solving the eigenvalue problem...
 KGrids1:  -0.44444  -0.33333  -0.22222  -0.11111   0.00000   0.11111   0.22222   0.33333   0.44445 
 KGrids2:   0.00000 
 KGrids3:  -0.44444  -0.33333  -0.22222  -0.11111   0.00000   0.11111   0.22222   0.33334   0.44445 
<Band_DFT>  Eigen, time=0.044595
<Band_DFT>  DM, time=0.065279
    1    C  MulP   1.9877  1.9877 sum   3.9754
    2    C  MulP   2.0123  2.0123 sum   4.0246
    3    C  MulP   2.0123  2.0123 sum   4.0246
    4    C  MulP   1.9877  1.9877 sum   3.9754
 Sum of MulP: up   =     8.00000 down          =     8.00000
              total=    16.00000 ideal(neutral)=    16.00000
<DFT>  Total Spin Moment (muB) =  0.000000000000
<DFT>  Mixing_weight= 0.020000000000
<DFT>  Uele   =   -6.714638108137  dUele     =   0.000942643679
<DFT>  NormRD =    0.244217919865  Criterion =   0.000000000100

******************* MD=38  SCF= 7 *******************
<Poisson>  Poisson's equation using FFT...
<Set_Hamiltonian>  Hamiltonian matrix for VNA+dVH+Vxc...
<Band>  Solving the eigenvalue problem...
 KGrids1:  -0.44444  -0.33333  -0.22222  -0.11111   0.00000   0.11111   0.22222   0.33333   0.44445 
 KGrids2:   0.00000 
 KGrids3:  -0.44444  -0.33333  -0.22222  -0.11111   0.00000   0.11111   0.22222   0.33334   0.44445 
<Band_DFT>  Eigen, time=0.044638
<Band_DFT>  DM, time=0.065257
    1    C  MulP   1.9889  1.9889 sum   3.9777
    2    C  MulP   2.0111  2.0111 sum   4.0223
    3    C  MulP   2.0111  2.0111 sum   4.0223
    4    C  MulP   1.9889  1.9889 sum   3.9777
 Sum of MulP: up   =     8.00000 down          =     8.00000
              total=    16.00000 ideal(neutral)=    16.00000
<DFT>  Total Spin Moment (muB) =  0.000000000000
<DFT>  Mixing_weight= 0.002000000000
<DFT>  Uele   =   -6.715563331358  dUele     =   0.000925223221
<DFT>  NormRD =    0.236753195516  Criterion =   0.000000000100

******************* MD=38  SCF= 8 *******************
<Poisson>  Poisson's equation using FFT...
<Set_Hamiltonian>  Hamiltonian matrix for VNA+dVH+Vxc...
<Band>  Solving the eigenvalue problem...
 KGrids1:  -0.44444  -0.33333  -0.22222  -0.11111   0.00000   0.11111   0.22222   0.33333   0.44445 
 KGrids2:   0.00000 
 KGrids3:  -0.44444  -0.33333  -0.22222  -0.11111   0.00000   0.11111   0.22222   0.33334   0.44445 
<Band_DFT>  Eigen, time=0.044465
<Band_DFT>  DM, time=0.065496
    1    C  MulP   1.9751  1.9751 sum   3.9502
    2    C  MulP   2.0249  2.0249 sum   4.0498
    3    C  MulP   2.0249  2.0249 sum   4.0498
    4    C  MulP   1.9751  1.9751 sum   3.9502
 Sum of MulP: up   =     8.00000 down          =     8.00000
              total=    16.00000 ideal(neutral)=    16.00000
                                                                                                                                                                                                                                                                                                                                                                                                                                                                                                                                                                                                                                                                                                                                                                                                                                                                                                                                                                                                                                                                                                                                                                                                                                                                                                                                                                                                                                                                                                                                                                                                                                                                                                                                                                                                                                                                                                                                                                                                                                                                                                                                                                                                                                                                                                                                                                                                                                                                                                                                                                                                                                                                                                                                                                                                                         