
The number of threads in each node for OpenMP parallelization is 1.


*******************************************************
*******************************************************
 Welcome to OpenMX   Ver. 3.8.5                           
 Copyright (C), 2002-2014, T. Ozaki                    
 OpenMX comes with ABSOLUTELY NO WARRANTY.             
 This is free software, and you are welcome to         
 redistribute it under the constitution of the GNU-GPL.
*******************************************************
*******************************************************

Automatic determination of Kerker_factor:   3.643095074873


<Input_std>  Your input file was normally read.
<Input_std>  The system includes 1 species and 2 atoms.

*******************************************************
                     PAO and VPS                       
*******************************************************

<SetPara_DFT>  PAOs of species C were normally found.
<SetPara_DFT>  VPSs of species C were normally found.
               C_CA13.vps is j-dependent.
               In case of scf.SpinOrbit.Coupling=off,
               j-dependent pseudo potentials are averaged by j-degeneracy,
               which corresponds to a scalar relativistic treatment.

*******************************************************
     Fourier transform of PAO and projectors of VNL    
*******************************************************

<FT_PAO>          Fourier transform of pseudo atomic orbitals
<FT_NLP>          Fourier transform of non-local projectors
<FT_ProExpn_VNA>  Fourier transform of VNA separable projectors
<FT_VNA>          Fourier transform of VNA potentials
<FT_ProductPAO>   Fourier transform of product of PAOs

*******************************************************
  Allocation of atoms to proccesors at MD_iter=    1     
*******************************************************

 proc =   0  # of atoms=   1  estimated weight=         1.00000
 proc =   1  # of atoms=   1  estimated weight=         1.00000
 proc =   2  # of atoms=   0  estimated weight=         0.00000
 proc =   3  # of atoms=   0  estimated weight=         0.00000
 proc =   4  # of atoms=   0  estimated weight=         0.00000
 proc =   5  # of atoms=   0  estimated weight=         0.00000
 proc =   6  # of atoms=   0  estimated weight=         0.00000




*******************************************************
        Analysis of neighbors and setting of grids        
*******************************************************

TFNAN=      32   Average FNAN=  16.00000
TSNAN=       0   Average SNAN=   0.00000
<truncation> CpyCell= 1 ct_AN=   1 FNAN SNAN  16   0
<truncation> CpyCell= 1 ct_AN=   2 FNAN SNAN  16   0
TFNAN=      66   Average FNAN=  33.00000
TSNAN=       0   Average SNAN=   0.00000
<truncation> CpyCell= 2 ct_AN=   1 FNAN SNAN  33   0
<truncation> CpyCell= 2 ct_AN=   2 FNAN SNAN  33   0
TFNAN=      66   Average FNAN=  33.00000
TSNAN=       0   Average SNAN=   0.00000
<truncation> CpyCell= 3 ct_AN=   1 FNAN SNAN  33   0
<truncation> CpyCell= 3 ct_AN=   2 FNAN SNAN  33   0
TFNAN=      66   Average FNAN=  33.00000
TSNAN=       0   Average SNAN=   0.00000
<truncation> CpyCell= 3 ct_AN=   1 FNAN SNAN  33   0
<truncation> CpyCell= 3 ct_AN=   2 FNAN SNAN  33   0
<Check_System> The system is slab.
lattice vectors (bohr)
A  =  4.648725931904,  0.000000000000,  0.000000000000
B  = -2.324362965952,  4.025116355673,  0.000000000000
C  =  0.000000000000,  0.000000000000, 18.897259885789
reciprocal lattice vectors (bohr^-1)
RA =  1.351592973907,  0.780497351129, -0.000000000000
RB =  0.000000000000,  1.560994702258,  0.000000000000
RC =  0.000000000000, -0.000000000000,  0.332491871581
Grid_Origin  1.226747120919  0.423613575773 -9.331980190513
Cell_Volume =    353.599154478183 (Bohr^3)
GridVol     =      0.013473523643 (Bohr^3)
Grid_Origin  1.226747120919  0.423613575773 -9.331980190513
Cell_Volume =    353.599154478183 (Bohr^3)
GridVol     =      0.013473523643 (Bohr^3)
<UCell_Box> Info. of cutoff energy and num. of grids
lattice vectors (bohr)
A  =  4.648725931904,  0.000000000000,  0.000000000000
B  = -2.324362965952,  4.025116355673,  0.000000000000
C  =  0.000000000000,  0.000000000000, 18.897259885789
reciprocal lattice vectors (bohr^-1)
RA =  1.351592973907,  0.780497351129, -0.000000000000
RB =  0.000000000000,  1.560994702258,  0.000000000000
RC =  0.000000000000, -0.000000000000,  0.332491871581
Required cutoff energy (Ryd) for 3D-grids = 180.0000
    Used cutoff energy (Ryd) for 3D-grids = 197.3144, 197.3731, 181.3310
Num. of grids of a-, b-, and c-axes = 18, 18, 81
Grid_Origin  1.226747120919  0.423613575773 -9.331980190513
Cell_Volume =    353.599154478183 (Bohr^3)
GridVol     =      0.013473523643 (Bohr^3)
Cell vectors (bohr) of the grid cell (gtv)
  gtv_a =  0.258262551772,  0.000000000000,  0.000000000000
  gtv_b = -0.129131275886,  0.223617575315,  0.000000000000
  gtv_c =  0.000000000000,  0.000000000000,  0.233299504763
  |gtv_a| =  0.258262551772
  |gtv_b| =  0.258224139851
  |gtv_c| =  0.233299504763
Num. of grids overlapping with atom    1 = 38895
Num. of grids overlapping with atom    2 = 38895

*******************************************************
             SCF calculation at MD = 1                
*******************************************************

<MD= 1>  Calculation of the overlap matrix
<MD= 1>  Calculation of the nonlocal matrix
<MD= 1>  Calculation of the VNA projector matrix

******************* MD= 1  SCF= 1 *******************
<Band>  Solving the eigenvalue problem...
 KGrids1:  -0.43750  -0.31250  -0.18750  -0.06250   0.06250   0.18750   0.31250   0.43750 
 KGrids2:  -0.43750  -0.31250  -0.18750  -0.06250   0.06250   0.18750   0.31250   0.43750 
 KGrids3:   0.00000 
<Band_DFT>  Eigen, time=0.005489
<Band_DFT>  DM, time=0.013755
    1    C  MulP   2.0000  2.0000 sum   4.0000
    2    C  MulP   2.0000  2.0000 sum   4.0000
 Sum of MulP: up   =     4.00000 down          =     4.00000
              total=     8.00000 ideal(neutral)=     8.00000
<DFT>  Total Spin Moment (muB) =  0.000000000000
<DFT>  Mixing_weight= 0.010000000000
<DFT>  Uele   =   -3.254701960112  dUele     =   1.000000000000
<DFT>  NormRD =    1.000000000000  Criterion =   0.000000000100

******************* MD= 1  SCF= 2 *******************
<Poisson>  Poisson's equation using FFT...
<Set_Hamiltonian>  Hamiltonian matrix for VNA+dVH+Vxc...
<Band>  Solving the eigenvalue problem...
 KGrids1:  -0.43750  -0.31250  -0.18750  -0.06250   0.06250   0.18750   0.31250   0.43750 
 KGrids2:  -0.43750  -0.31250  -0.18750  -0.06250   0.06250   0.18750   0.31250   0.43750 
 KGrids3:   0.00000 
<Band_DFT>  Eigen, time=0.005499
<Band_DFT>  DM, time=0.013710
    1    C  MulP   2.0000  2.0000 sum   4.0000
    2    C  MulP   2.0000  2.0000 sum   4.0000
 Sum of MulP: up   =     4.00000 down          =     4.00000
              total=     8.00000 ideal(neutral)=     8.00000
<DFT>  Total Spin Moment (muB) =  0.000000000000
<DFT>  Mixing_weight= 0.020000000000
<DFT>  Uele   =   -3.262102161029  dUele     =   0.007400200918
<DFT>  NormRD =    0.942448211831  Criterion =   0.000000000100

******************* MD= 1  SCF= 3 *******************
<Poisson>  Poisson's equation using FFT...
<Set_Hamiltonian>  Hamiltonian matrix for VNA+dVH+Vxc...
<Band>  Solving the eigenvalue problem...
 KGrids1:  -0.43750  -0.31250  -0.18750  -0.06250   0.06250   0.18750   0.31250   0.43750 
 KGrids2:  -0.43750  -0.31250  -0.18750  -0.06250   0.06250   0.18750   0.31250   0.43750 
 KGrids3:   0.00000 
<Band_DFT>  Eigen, time=0.005500
<Band_DFT>  DM, time=0.013721
    1    C  MulP   2.0000  2.0000 sum   4.0000
    2    C  MulP   2.0000  2.0000 sum   4.0000
 Sum of MulP: up   =     4.00000 down          =     4.00000
              total=     8.00000 ideal(neutral)=     8.00000
<DFT>  Total Spin Moment (muB) =  0.000000000000
<DFT>  Mixing_weight= 0.020000000000
<DFT>  Uele   =   -3.269415075712  dUele     =   0.007312914683
<DFT>  NormRD =    0.923649670652  Criterion =   0.000000000100

******************* MD= 1  SCF= 4 *******************
<Poisson>  Poisson's equation using FFT...
<Set_Hamiltonian>  Hamiltonian matrix for VNA+dVH+Vxc...
<Band>  Solving the eigenvalue problem...
 KGrids1:  -0.43750  -0.31250  -0.18750  -0.06250   0.06250   0.18750   0.31250   0.43750 
 KGrids2:  -0.43750  -0.31250  -0.18750  -0.06250   0.06250   0.18750   0.31250   0.43750 
 KGrids3:   0.00000 
<Band_DFT>  Eigen, time=0.005488
<Band_DFT>  DM, time=0.013711
    1    C  MulP   2.0000  2.0000 sum   4.0000
    2    C  MulP   2.0000  2.0000 sum   4.0000
 Sum of MulP: up   =     4.00000 down          =     4.00000
              total=     8.00000 ideal(neutral)=     8.00000
<DFT>  Total Spin Moment (muB) =  0.000000000000
<DFT>  Mixing_weight= 0.020000000000
<DFT>  Uele   =   -3.276590664294  dUele     =   0.007175588581
<DFT>  NormRD =    0.905231265869  Criterion =   0.000000000100

******************* MD= 1  SCF= 5 *******************
<Poisson>  Poisson's equation using FFT...
<Set_Hamiltonian>  Hamiltonian matrix for VNA+dVH+Vxc...
<Band>  Solving the eigenvalue problem...
 KGrids1:  -0.43750  -0.31250  -0.18750  -0.06250   0.06250   0.18750   0.31250   0.43750 
 KGrids2:  -0.43750  -0.31250  -0.18750  -0.06250   0.06250   0.18750   0.31250   0.43750 
 KGrids3:   0.00000 
<Band_DFT>  Eigen, time=0.005482
<Band_DFT>  DM, time=0.013713
    1    C  MulP   2.0000  2.0000 sum   4.0000
    2    C  MulP   2.0000  2.0000 sum   4.0000
 Sum of MulP: up   =     4.00000 down          =     4.00000
              total=     8.00000 ideal(neutral)=     8.00000
<DFT>  Total Spin Moment (muB) =  0.000000000000
<DFT>  Mixing_weight= 0.020000000000
<DFT>  Uele   =   -3.283631603286  dUele     =   0.007040938992
<DFT>  NormRD =    0.887184299475  Criterion =   0.000000000100

******************* MD= 1  SCF= 6 *******************
<Poisson>  Poisson's equation using FFT...
<Set_Hamiltonian>  Hamiltonian matrix for VNA+dVH+Vxc...
<Band>  Solving the eigenvalue problem...
 KGrids1:  -0.43750  -0.31250  -0.18750  -0.06250   0.06250   0.18750   0.31250   0.43750 
 KGrids2:  -0.43750  -0.31250  -0.18750  -0.06250   0.06250   0.18750   0.31250   0.43750 
 KGrids3:   0.00000 
<Band_DFT>  Eigen, time=0.005490
<Band_DFT>  DM, time=0.013713
    1    C  MulP   2.0000  2.0000 sum   4.0000
    2    C  MulP   2.0000  2.0000 sum   4.0000
 Sum of MulP: up   =     4.00000 down          =     4.00000
              total=     8.00000 ideal(neutral)=     8.00000
<DFT>  Total Spin Moment (muB) =  0.000000000000
<DFT>  Mixing_weight= 0.020000000000
<DFT>  Uele   =   -3.290540945311  dUele     =   0.006909342025
<DFT>  NormRD =    0.869501819991  Criterion =   0.000000000100

******************* MD= 1  SCF= 7 *******************
<Poisson>  Poisson's equation using FFT...
<Set_Hamiltonian>  Hamiltonian matrix for VNA+dVH+Vxc...
<Band>  Solving the eigenvalue problem...
 KGrids1:  -0.43750  -0.31250  -0.18750  -0.06250   0.06250   0.18750   0.31250   0.43750 
 KGrids2:  -0.43750  -0.31250  -0.18750  -0.06250   0.06250   0.18750   0.31250   0.43750 
 KGrids3:   0.00000 
<Band_DFT>  Eigen, time=0.005487
<Band_DFT>  DM, time=0.013688
    1    C  MulP   2.0000  2.0000 sum   4.0000
    2    C  MulP   2.0000  2.0000 sum   4.0000
 Sum of MulP: up   =     4.00000 down          =     4.00000
              total=     8.00000 ideal(neutral)=     8.00000
<DFT>  Total Spin Moment (muB) =  0.000000000000
<DFT>  Mixing_weight= 0.002000000000
<DFT>  Uele   =   -3.297321975985  dUele     =   0.006781030674
<DFT>  NormRD =    0.852177936884  Criterion =   0.000000000100

******************* MD= 1  SCF= 8 *******************
<Poisson>  Poisson's equation using FFT...
<Set_Hamiltonian>  Hamiltonian matrix for VNA+dVH+Vxc...
<Band>  Solving the eigenvalue problem...
 KGrids1:  -0.43750  -0.31250  -0.18750  -0.06250   0.06250   0.18750   0.31250   0.43750 
 KGrids2:  -0.43750  -0.31250  -0.18750  -0.06250   0.06250   0.18750   0.31250   0.43750 
 KGrids3:   0.00000 
<Band_DFT>  Eigen, time=0.005490
<Band_DFT>  DM, time=0.013684
    1    C  MulP   2.0000  2.0000 sum   4.0000
    2    C  MulP   2.0000  2.0000 sum   4.0000
 Sum of MulP: up   =     4.00000 down          =     4.00000
              total=     8.00000 ideal(neutral)=     8.00000
<DFT>  Total Spin Moment (muB) =  0.000000000000
<DFT>  Mixing_weight= 0.002000000000
<DFT>  Uele   =   -3.691911571855  dUele     =   0.394589595870
<DFT>  NormRD =    0.036454272440  Criterion =   0.000000000100

******************* MD= 1  SCF= 9 *******************
<Poisson>  Poisson's equation using FFT...
<Set_Hamiltonian>  Hamiltonian matrix for VNA+dVH+Vxc...
<Band>  Solving the eigenvalue problem...
 KGrids1:  -0.43750  -0.31250  -0.18750  -0.06250   0.06250   0.18750   0.31250   0.43750 
 KGrids2:  -0.43750  -0.31250  -0.18750  -0.06250   0.06250   0.18750   0.31250   0.43750 
 KGrids3:   0.00000 
<Band_DFT>  Eigen, time=0.005481
<Band_DFT>  DM, time=0.013726
    1    C  MulP   2.0000  2.0000 sum   4.0000
    2    C  MulP   2.0000  2.0000 sum   4.0000
 Sum of MulP: up   =     4.00000 down          =     4.00000
              total=     8.00000 ideal(neutral)=     8.00000
<DFT>  Total Spin Moment (muB) =  0.000000000000
<DFT>  Mixing_weight= 0.002000000000
<DFT>  Uele   =   -3.752711590854  dUele     =   0.060800018999
<DFT>  NormRD =    0.005545376761  Criterion =   0.000000000100

******************* MD= 1  SCF=10 *******************
<Poisson>  Poisson's equation using FFT...
<Set_Hamiltonian>  Hamiltonian matrix for VNA+dVH+Vxc...
<Band>  Solving the eigenvalue problem...
 KGrids1:  -0.43750  -0.31250  -0.18750  -0.06250   0.06250   0.18750   0.31250   0.43750 
 KGrids2:  -0.43750  -0.31250  -0.18750  -0.06250   0.06250   0.18750   0.31250   0.43750 
 KGrids3:   0.00000 
<Band_DFT>  Eigen, time=0.005495
<Band_DFT>  DM, time=0.013697
    1    C  MulP   2.0000  2.0000 sum   4.0000
    2    C  MulP   2.0000  2.0000 sum   4.0000
 Sum of MulP: up   =     4.00000 down          =     4.00000
              total=     8.00000 ideal(neutral)=     8.00000
<DFT>  Total Spin Moment (muB) =  0.000000000000
<DFT>  Mixing_weight= 0.002000000000
<DFT>  Uele   =   -3.754111461191  dUele     =   0.001399870337
<DFT>  NormRD =    0.000899400650  Criterion =   0.000000000100

******************* MD= 1  SCF=11 *******************
<Poisson>  Poisson's equation using FFT...
<Set_Hamiltonian>  Hamiltonian matrix for VNA+dVH+Vxc...
<Band>  Solving the eigenvalue problem...
 KGrids1:  -0.43750  -0.31250  -0.18750  -0.06250   0.06250   0.18750   0.31250   0.43750 
 KGrids2:  -0.43750  -0.31250  -0.18750  -0.06250   0.06250   0.18750   0.31250   0.43750 
 KGrids3:   0.00000 
<Band_DFT>  Eigen, time=0.005478
<Band_DFT>  DM, time=0.013689
    1    C  MulP   2.0000  2.0000 sum   4.0000
    2    C  MulP   2.0000  2.0000 sum   4.0000
 Sum of MulP: up   =     4.00000 down          =     4.00000
              total=     8.00000 ideal(neutral)=     8.00000
<DFT>  Total Spin Moment (muB) =  0.000000000000
<DFT>  Mixing_weight= 0.002000000000
<DFT>  Uele   =   -3.754847354665  dUele     =   0.000735893474
<DFT>  NormRD =    0.000128106279  Criterion =   0.000000000100

******************* MD= 1  SCF=12 *******************
<Poisson>  Poisson's equation using FFT...
<Set_Hamiltonian>  Hamiltonian matrix for VNA+dVH+Vxc...
<Band>  Solving the eigenvalue problem...
 KGrids1:  -0.43750  -0.31250  -0.18750  -0.06250   0.06250   0.18750   0.31250   0.43750 
 KGrids2:  -0.43750  -0.31250  -0.18750  -0.06250   0.06250   0.18750   0.31250   0.43750 
 KGrids3:   0.00000 
<Band_DFT>  Eigen, time=0.005477
<Band_DFT>  DM, time=0.013708
    1    C  MulP   2.0000  2.0000 sum   4.0000
    2    C  MulP   2.0000  2.0000 sum   4.0000
 Sum of MulP: up   =     4.00000 down          =     4.00000
              total=     8.00000 ideal(neutral)=     8.00000
<DFT>  Total Spin Moment (muB) =  0.000000000000
<DFT>  Mixing_weight= 0.002000000000
<DFT>  Uele   =   -3.754831080976  dUele     =   0.000016273689
<DFT>  NormRD =    0.000007573604  Criterion =   0.000000000100

******************* MD= 1  SCF=13 *******************
<Poisson>  Poisson's equation using FFT...
<Set_Hamiltonian>  Hamiltonian matrix for VNA+dVH+Vxc...
<Band>  Solving the eigenvalue problem...
 KGrids1:  -0.43750  -0.31250  -0.18750  -0.06250   0.06250   0.18750   0.31250   0.43750 
 KGrids2:  -0.43750  -0.31250  -0.18750  -0.06250   0.06250   0.18750   0.31250   0.43750 
 KGrids3:   0.00000 
<Band_DFT>  Eigen, time=0.005481
<Band_DFT>  DM, time=0.013691
    1    C  MulP   2.0000  2.0000 sum   4.0000
    2    C  MulP   2.0000  2.0000 sum   4.0000
 Sum of MulP: up   =     4.00000 down          =     4.00000
              total=     8.00000 ideal(neutral)=     8.00000
<DFT>  Total Spin Moment (muB) =  0.000000000000
<DFT>  Mixing_weight= 0.002000000000
<DFT>  Uele   =   -3.754821837680  dUele     =   0.000009243296
<DFT>  NormRD =    0.000000913380  Criterion =   0.000000000100

******************* MD= 1  SCF=14 *******************
<Poisson>  Poisson's equation using FFT...
<Set_Hamiltonian>  Hamiltonian matrix for VNA+dVH+Vxc...
<Band>  Solving the eigenvalue problem...
 KGrids1:  -0.43750  -0.31250  -0.18750  -0.06250   0.06250   0.18750   0.31250   0.43750 
 KGrids2:  -0.43750  -0.31250  -0.18750  -0.06250   0.06250   0.18750   0.31250   0.43750 
 KGrids3:   0.00000 
<Band_DFT>  Eigen, time=0.005475
<Band_DFT>  DM, time=0.013672
    1    C  MulP   2.0000  2.0000 sum   4.0000
    2    C  MulP   2.0000  2.0000 sum   4.0000
 Sum of MulP: up   =     4.00000 down          =     4.00000
              total=     8.00000 ideal(neutral)=     8.00000
<DFT>  Total Spin Moment (muB) =  0.000000000000
<DFT>  Mixing_weight= 0.002000000000
<DFT>  Uele   =   -3.754820965607  dUele     =   0.000000872074
<DFT>  NormRD =    0.000000292672  Criterion =   0.000000000100

******************* MD= 1  SCF=15 *******************
<Poisson>  Poisson's equation using FFT...
<Set_Hamiltonian>  Hamiltonian matrix for VNA+dVH+Vxc...
<Band>  Solving the eigenvalue problem...
 KGrids1:  -0.43750  -0.31250  -0.18750  -0.06250   0.06250   0.18750   0.31250   0.43750 
 KGrids2:  -0.43750  -0.31250  -0.18750  -0.06250   0.06250   0.18750   0.31250   0.43750 
 KGrids3:   0.00000 
<Band_DFT>  Eigen, time=0.005470
<Band_DFT>  DM, time=0.013734
    1    C  MulP   2.0000  2.0000 sum   4.0000
    2    C  MulP   2.0000  2.0000 sum   4.0000
 Sum of MulP: up   =     4.00000 down          =     4.00000
              total=     8.00000 ideal(neutral)=     8.00000
<DFT>  Total Spin Moment (muB) =  0.000000000000
<DFT>  Mixing_weight= 0.002000000000
<DFT>  Uele   =   -3.754820608979  dUele     =   0.000000356628
<DFT>  NormRD =    0.000000041737  Criterion =   0.000000000100

******************* MD= 1  SCF=16 *******************
<Poisson>  Poisson's equation using FFT...
<Set_Hamiltonian>  Hamiltonian matrix for VNA+dVH+Vxc...
<Band>  Solving the eigenvalue problem...
 KGrids1:  -0.43750  -0.31250  -0.18750  -0.06250   0.06250   0.18750   0.31250   0.43750 
 KGrids2:  -0.43750  -0.31250  -0.18750  -0.06250   0.06250   0.18750   0.31250   0.43750 
 KGrids3:   0.00000 
<Band_DFT>  Eigen, time=0.005472
<Band_DFT>  DM, time=0.013713
    1    C  MulP   2.0000  2.0000 sum   4.0000
    2    C  MulP   2.0000  2.0000 sum   4.0000
 Sum of MulP: up   =     4.00000 down          =     4.00000
              total=     8.00000 ideal(neutral)=     8.00000
<DFT>  Total Spin Moment (muB) =  0.000000000000
<DFT>  Mixing_weight= 0.002000000000
<DFT>  Uele   =   -3.754820546207  dUele     =   0.000000062772
<DFT>  NormRD =    0.000000002720  Criterion =   0.000000000100

******************* MD= 1  SCF=17 *******************
<Poisson>  Poisson's equation using FFT...
<Set_Hamiltonian>  Hamiltonian matrix for VNA+dVH+Vxc...
<Band>  Solving the eigenvalue problem...
 KGrids1:  -0.43750  -0.31250  -0.18750  -0.06250   0.06250   0.18750   0.31250   0.43750 
 KGrids2:  -0.43750  -0.31250  -0.18750  -0.06250   0.06250   0.18750   0.31250   0.43750 
 KGrids3:   0.00000 
<Band_DFT>  Eigen, time=0.005472
<Band_DFT>  DM, time=0.013711
    1    C  MulP   2.0000  2.0000 sum   4.0000
    2    C  MulP   2.0000  2.0000 sum   4.0000
 Sum of MulP: up   =     4.00000 down          =     4.00000
              total=     8.00000 ideal(neutral)=     8.00000
<DFT>  Total Spin Moment (muB) =  0.000000000000
<DFT>  Mixing_weight= 0.002000000000
<DFT>  Uele   =   -3.754820549189  dUele     =   0.000000002983
<DFT>  NormRD =    0.000000000870  Criterion =   0.000000000100

******************* MD= 1  SCF=18 *******************
<Poisson>  Poisson's equation using FFT...
<Set_Hamiltonian>  Hamiltonian matrix for VNA+dVH+Vxc...
<Band>  Solving the eigenvalue problem...
 KGrids1:  -0.43750  -0.31250  -0.18750  -0.06250   0.06250   0.18750   0.31250   0.43750 
 KGrids2:  -0.43750  -0.31250  -0.18750  -0.06250   0.06250   0.18750   0.31250   0.43750 
 KGrids3:   0.00000 
<Band_DFT>  Eigen, time=0.005482
<Band_DFT>  DM, time=0.013677
    1    C  MulP   2.0000  2.0000 sum   4.0000
    2    C  MulP   2.0000  2.0000 sum   4.0000
 Sum of MulP: up   =     4.00000 down          =     4.00000
              total=     8.00000 ideal(neutral)=     8.00000
<DFT>  Total Spin Moment (muB) =  0.000000000000
<DFT>  Mixing_weight= 0.002000000000
<DFT>  Uele   =   -3.754820550411  dUele     =   0.000000001222
<DFT>  NormRD =    0.000000000238  Criterion =   0.000000000100

******************* MD= 1  SCF=19 *******************
<Poisson>  Poisson's equation using FFT...
<Set_Hamiltonian>  Hamiltonian matrix for VNA+dVH+Vxc...
<Band>  Solving the eigenvalue problem...
 KGrids1:  -0.43750  -0.31250  -0.18750  -0.06250   0.06250   0.18750   0.31250   0.43750 
 KGrids2:  -0.43750  -0.31250  -0.18750  -0.06250   0.06250   0.18750   0.31250   0.43750 
 KGrids3:   0.00000 
<Band_DFT>  Eigen, time=0.005501
<Band_DFT>  DM, time=0.013696
    1    C  MulP   2.0000  2.0000 sum   4.0000
    2    C  MulP   2.0000  2.0000 sum   4.0000
 Sum of MulP: up   =     4.00000 down          =     4.00000
              total=     8.00000 ideal(neutral)=     8.00000
<DFT>  Total Spin Moment (muB) =  0.000000000000
<DFT>  Mixing_weight= 0.002000000000
<DFT>  Uele   =   -3.754820550071  dUele     =   0.000000000340
<DFT>  NormRD =    0.000000000001  Criterion =   0.000000000100

******************* MD= 1  SCF=20 *******************
<Poisson>  Poisson's equation using FFT...
<Set_Hamiltonian>  Hamiltonian matrix for VNA+dVH+Vxc...
<Band>  Solving the eigenvalue problem...
 KGrids1:  -0.43750  -0.31250  -0.18750  -0.06250   0.06250   0.18750   0.31250   0.43750 
 KGrids2:  -0.43750  -0.31250  -0.18750  -0.06250   0.06250   0.18750   0.31250   0.43750 
 KGrids3:   0.00000 
<Band_DFT>  Eigen, time=0.005423
<Band_DFT>  DM, time=0.013697
    1    C  MulP   2.0000  2.0000 sum   4.0000
    2    C  MulP   2.0000  2.0000 sum   4.0000
 Sum of MulP: up   =     4.00000 down          =     4.00000
              total=     8.00000 ideal(neutral)=     8.00000
<DFT>  Total Spin Moment (muB) =  0.000000000000
<DFT>  Mixing_weight= 0.002000000000
<DFT>  Uele   =   -3.754820550073  dUele     =   0.000000000002
<DFT>  NormRD =    0.000000000000  Criterion =   0.000000000100
Band_DFT_kpath start
kpath
1 ( 0.000000000000000  0.000000000000000  0.000000000000000)->( 0.000000000000000  0.500000000000000  0.500000000000000)
2 ( 0.000000000000000  0.500000000000000  0.500000000000000)->( 0.250000000000000  0.750000000000000  0.500000000000000)
3 ( 0.250000000000000  0.750000000000000  0.500000000000000)->( 0.500000000000000  0.500000000000000  0.500000000000000)
4 ( 0.500000000000000  0.500000000000000  0.500000000000000)->( 0.000000000000000  0.000000000000000  0.000000000000000)
5 ( 0.000000000000000  0.000000000000000  0.000000000000000)->( 0.375000000000000  0.750000000000000  0.375000000000000)
6 ( 0.375000000000000  0.750000000000000  0.375000000000000)->( 0.000000000000000  0.500000000000000  0.500000000000000)

<Band_DFT_Dosout>
 KGrids1: 0.000001 0.125001 0.250001 0.375001 0.500001 0.625001 0.750001 0.875001 
 KGrids2: -0.000001 0.124999 0.249999 0.374999 0.499999 0.624999 0.749999 0.874999 
 KGrids3: 0.000002 
 iemin and iemax= 1 17
 write eigenvalues
 write eigenvectors
<MD= 1>  Force calculation
  Force calculation #1
  Force calculation #2
  Force calculation #3
  Force calculation #4
  Force calculation #5
<MD= 1>  Total Energy
  Force calculation #6
  Force calculation #7

*******************************************************
                  Dipole moment (Debye)                 
*******************************************************

 Absolute D        0.00004045

                      Dx                Dy                Dz
 Total             -0.00002860       -0.00002860        0.00000000
 Core              47.26355490       47.26355490        0.00000000
 Electron         -47.26358350      -47.26358350        0.00000000
 Back ground       -0.00000000       -0.00000000       -0.00000000

*******************************************************
                Total Energy (Hartree) at MD = 1        
*******************************************************

  Uele  =      -3.754820550073

  Ukin  =       8.623837816255
  UH0   =     -97.907115084285
  UH1   =       0.030045076012
  Una   =      -6.062665627817
  Unl   =      -1.093841222754
  Uxc0  =      -1.972280136926
  Uxc1  =      -1.972280136926
  Ucore =      88.785910171121
  Uhub  =       0.000000000000
  Ucs   =       0.000000000000
  Uzs   =       0.000000000000
  Uzo   =       0.000000000000
  Uef   =       0.000000000000
  UvdW  =       0.000000000000
  Utot  =     -11.568389145321

  Note:

  Utot = Ukin+UH0+UH1+Una+Unl+Uxc0+Uxc1+Ucore+Uhub+Ucs+Uzs+Uzo+Uef+UvdW

  Uele:   band energy
  Ukin:   kinetic energy
  UH0:    electric part of screened Coulomb energy
  UH1:    difference electron-electron Coulomb energy
  Una:    neutral atom potential energy
  Unl:    non-local potential energy
  Uxc0:   exchange-correlation energy for alpha spin
  Uxc1:   exchange-correlation energy for beta spin
  Ucore:  core-core Coulomb energy
  Uhub:   LDA+U energy
  Ucs:    constraint energy for spin orientation
  Uzs:    Zeeman term for spin magnetic moment
  Uzo:    Zeeman term for orbital magnetic moment
  Uef:    electric energy by electric field
  UvdW:   semi-empirical vdW energy 

  (see also PRB 72, 045121(2005) for the energy contributions)


*******************************************************
           Computational times (s) at MD = 1            
*******************************************************

  DFT in total      =   38.16328

  Set_OLP_Kin       =    0.87201
  Set_Nonlocal      =    1.45870
  Set_ProExpn_VNA   =    6.23012
  Set_Hamiltonian   =    1.97093
  Poisson           =    0.01645
  diagonalization   =    0.51225
  Mixing_DM         =    0.11608
  Force             =   24.41487
  Total_Energy      =    1.04225
  Set_Aden_Grid     =    0.01744
  Set_Orbitals_Grid =    0.07983
  Set_Density_Grid  =    1.06874
  RestartFileDFT    =    0.00054
  Mulliken_Charge   =    0.00169
  FFT(2D)_Density   =    0.01651

*******************************************************
             MD or geometry opt. at MD = 1              
*******************************************************

<Steepest_Descent>  SD_scaling= 1.259817325304
<Steepest_Descent>  |Maximum force| (Hartree/Bohr) = 0.303279050036
<Steepest_Descent>  Criterion       (Hartree/Bohr) = 0.000000010000

  atom=  1, XYZ(ang) Fxyz(a.u.)=   1.7324    0.7684    0.0000    -0.2648    0.1479   -0.0000
  atom=  2, XYZ(ang) Fxyz(a.u.)=   0.7276    1.6916   -0.0000     0.2648   -0.1479    0.0000

*******************************************************
        Analysis of neighbors and setting of grids        
*******************************************************


*******************************************************
  Allocation of atoms to proccesors at MD_iter=    2     
*******************************************************

 proc =   0  # of atoms=   1  estimated weight=         1.00000
 proc =   1  # of atoms=   1  estimated weight=         1.00000
 proc =   2  # of atoms=   0  estimated weight=         0.00000
 proc =   3  # of atoms=   0  estimated weight=         0.00000
 proc =   4  # of atoms=   0  estimated weight=         0.00000
 proc =   5  # of atoms=   0  estimated weight=         0.00000
 proc =   6  # of atoms=   0  estimated weight=         0.00000



TFNAN=      70   Average FNAN=  35.00000
TSNAN=       0   Average SNAN=   0.00000
<truncation> CpyCell= 3 ct_AN=   1 FNAN SNAN  35   0
<truncation> CpyCell= 3 ct_AN=   2 FNAN SNAN  35   0
<UCell_Box> Info. of cutoff energy and num. of grids
lattice vectors (bohr)
A  =  4.648725931904,  0.000000000000,  0.000000000000
B  = -2.324362965952,  4.025116355673,  0.000000000000
C  =  0.000000000000,  0.000000000000, 18.897259885789
reciprocal lattice vectors (bohr^-1)
RA =  1.351592973907,  0.780497351129, -0.000000000000
RB =  0.000000000000,  1.560994702258,  0.000000000000
RC =  0.000000000000, -0.000000000000,  0.332491871581
Required cutoff energy (Ryd) for 3D-grids = 180.0000
    Used cutoff energy (Ryd) for 3D-grids = 197.3144, 197.3731, 181.3310
Num. of grids of a-, b-, and c-axes = 18, 18, 81
Cell_Volume =    353.599154478183 (Bohr^3)
GridVol     =      0.013473523643 (Bohr^3)
Cell vectors (bohr) of the grid cell (gtv)
  gtv_a =  0.258262551772,  0.000000000000,  0.000000000000
  gtv_b = -0.129131275886,  0.223617575315,  0.000000000000
  gtv_c =  0.000000000000,  0.000000000000,  0.233299504763
  |gtv_a| =  0.258262551772
  |gtv_b| =  0.258224139851
  |gtv_c| =  0.233299504763
Num. of grids overlapping with atom    1 = 38872
Num. of grids overlapping with atom    2 = 38872

*******************************************************
             SCF calculation at MD = 2                
*******************************************************

<MD= 2>  Calculation of the overlap matrix
<MD= 2>  Calculation of the nonlocal matrix
<MD= 2>  Calculation of the VNA projector matrix

******************* MD= 2  SCF= 1 *******************
<Restart>  Found restart files
<Poisson>  Poisson's equation using FFT...
<Band>  Solving the eigenvalue problem...
 KGrids1:  -0.43750  -0.31250  -0.18750  -0.06250   0.06250   0.18750   0.31250   0.43750 
 KGrids2:  -0.43750  -0.31250  -0.18750  -0.06250   0.06250   0.18750   0.31250   0.43750 
 KGrids3:   0.00000 
<Band_DFT>  Eigen, time=0.007868
<Band_DFT>  DM, time=0.013220
    1    C  MulP   2.0000  2.0000 sum   4.0000
    2    C  MulP   2.0000  2.0000 sum   4.0000
 Sum of MulP: up   =     4.00000 down          =     4.00000
              total=     8.00000 ideal(neutral)=     8.00000
<DFT>  Total Spin Moment (muB) =  0.000000000000
<DFT>  Mixing_weight= 0.020000000000
<DFT>  Uele   =   -3.709880627085  dUele     =   1.000000000000
<DFT>  NormRD =    1.000000000000  Criterion =   0.000000000100

******************* MD= 2  SCF= 2 *******************
<Poisson>  Poisson's equation using FFT...
<Set_Hamiltonian>  Hamiltonian matrix for VNA+dVH+Vxc...
<Band>  Solving the eigenvalue problem...
 KGrids1:  -0.43750  -0.31250  -0.18750  -0.06250   0.06250   0.18750   0.31250   0.43750 
 KGrids2:  -0.43750  -0.31250  -0.18750  -0.06250   0.06250   0.18750   0.31250   0.43750 
 KGrids3:   0.00000 
<Band_DFT>  Eigen, time=0.007875
<Band_DFT>  DM, time=0.013261
    1    C  MulP   2.0000  2.0000 sum   4.0000
    2    C  MulP   2.0000  2.0000 sum   4.0000
 Sum of MulP: up   =     4.00000 down          =     4.00000
              total=     8.00000 ideal(neutral)=     8.00000
<DFT>  Total Spin Moment (muB) =  0.000000000000
<DFT>  Mixing_weight= 0.020000000000
<DFT>  Uele   =   -3.709816814269  dUele     =   0.000063812815
<DFT>  NormRD =    0.345766837556  Criterion =   0.000000000100

******************* MD= 2  SCF= 3 *******************
<Poisson>  Poisson's equation using FFT...
<Set_Hamiltonian>  Hamiltonian matrix for VNA+dVH+Vxc...
<Band>  Solving the eigenvalue problem...
 KGrids1:  -0.43750  -0.31250  -0.18750  -0.06250   0.06250   0.18750   0.31250   0.43750 
 KGrids2:  -0.43750  -0.31250  -0.18750  -0.06250   0.06250   0.18750   0.31250   0.43750 
 KGrids3:   0.00000 
<Band_DFT>  Eigen, time=0.007890
<Band_DFT>  DM, time=0.013217
    1    C  MulP   2.0000  2.0000 sum   4.0000
    2    C  MulP   2.0000  2.0000 sum   4.0000
 Sum of MulP: up   =     4.00000 down          =     4.00000
              total=     8.00000 ideal(neutral)=     8.00000
<DFT>  Total Spin Moment (muB) =  0.000000000000
<DFT>  Mixing_weight= 0.020000000000
<DFT>  Uele   =   -3.709758095314  dUele     =   0.000058718955
<DFT>  NormRD =    0.338042421141  Criterion =   0.000000000100

******************* MD= 2  SCF= 4 *******************
<Poisson>  Poisson's equation using FFT...
<Set_Hamiltonian>  Hamiltonian matrix for VNA+dVH+Vxc...
<Band>  Solving the eigenvalue problem...
 KGrids1:  -0.43750  -0.31250  -0.18750  -0.06250   0.06250   0.18750   0.31250   0.43750 
 KGrids2:  -0.43750  -0.31250  -0.18750  -0.06250   0.06250   0.18750   0.31250   0.43750 
 KGrids3:   0.00000 
<Band_DFT>  Eigen, time=0.007920
<Band_DFT>  DM, time=0.013238
    1    C  MulP   2.0000  2.0000 sum   4.0000
    2    C  MulP   2.0000  2.0000 sum   4.0000
 Sum of MulP: up   =     4.00000 down          =     4.00000
              total=     8.00000 ideal(neutral)=     8.00000
<DFT>  Total Spin Moment (muB) =  0.000000000000
<DFT>  Mixing_weight= 0.020000000000
<DFT>  Uele   =   -3.709704288278  dUele     =   0.000053807037
<DFT>  NormRD =    0.330495587226  Criterion =   0.000000000100

******************* MD= 2  SCF= 5 *******************
<Poisson>  Poisson's equation using FFT...
<Set_Hamiltonian>  Hamiltonian matrix for VNA+dVH+Vxc...
<Band>  Solving the eigenvalue problem...
 KGrids1:  -0.43750  -0.31250  -0.18750  -0.06250   0.06250   0.18750   0.31250   0.43750 
 KGrids2:  -0.43750  -0.31250  -0.18750  -0.06250   0.06250   0.18750   0.31250   0.43750 
 KGrids3:   0.00000 
<Band_DFT>  Eigen, time=0.007905
<Band_DFT>  DM, time=0.013202
    1    C  MulP   2.0000  2.0000 sum   4.0000
    2    C  MulP   2.0000  2.0000 sum   4.0000
 Sum of MulP: up   =     4.00000 down          =     4.00000
              total=     8.00000 ideal(neutral)=     8.00000
<DFT>  Total Spin Moment (muB) =  0.000000000000
<DFT>  Mixing_weight= 0.020000000000
<DFT>  Uele   =   -3.709655214313  dUele     =   0.000049073964
<DFT>  NormRD =    0.323122169975  Criterion =   0.000000000100

******************* MD= 2  SCF= 6 *******************
<Poisson>  Poisson's equation using FFT...
<Set_Hamiltonian>  Hamiltonian matrix for VNA+dVH+Vxc...
<Band>  Solving the eigenvalue problem...
 KGrids1:  -0.43750  -0.31250  -0.18750  -0.06250   0.06250   0.18750   0.31250   0.43750 
 KGrids2:  -0.43750  -0.31250  -0.18750  -0.06250   0.06250   0.18750   0.31250   0.43750 
 KGrids3:   0.00000 
<Band_DFT>  Eigen, time=0.007906
<Band_DFT>  DM, time=0.013209
    1    C  MulP   2.0000  2.0000 sum   4.0000
    2    C  MulP   2.0000  2.0000 sum   4.0000
 Sum of MulP: up   =     4.00000 down          =     4.00000
              total=     8.00000 ideal(neutral)=     8.00000
<DFT>  Total Spin Moment (muB) =  0.000000000000
<DFT>  Mixing_weight= 0.020000000000
<DFT>  Uele   =   -3.709610703021  dUele     =   0.000044511293
<DFT>  NormRD =    0.315918102465  Criterion =   0.000000000100

******************* MD= 2  SCF= 7 *******************
<Poisson>  Poisson's equation using FFT...
<Set_Hamiltonian>  Hamiltonian matrix for VNA+dVH+Vxc...
<Band>  Solving the eigenvalue problem...
 KGrids1:  -0.43750  -0.31250  -0.18750  -0.06250   0.06250   0.18750   0.31250   0.43750 
 KGrids2:  -0.43750  -0.31250  -0.18750  -0.06250   0.06250   0.18750   0.31250   0.43750 
 KGrids3:   0.00000 
<Band_DFT>  Eigen, time=0.007892
<Band_DFT>  DM, time=0.013210
    1    C  MulP   2.0000  2.0000 sum   4.0000
    2    C  MulP   2.0000  2.0000 sum   4.0000
 Sum of MulP: up   =     4.00000 down          =     4.00000
              total=     8.00000 ideal(neutral)=     8.00000
<DFT>  Total Spin Moment (muB) =  0.000000000000
<DFT>  Mixing_weight= 0.002000000000
<DFT>  Uele   =   -3.709570587992  dUele     =   0.000040115028
<DFT>  NormRD =    0.308879414504  Criterion =   0.000000000100

******************* MD= 2  SCF= 8 *******************
<Poisson>  Poisson's equation using FFT...
<Set_Hamiltonian>  Hamiltonian matrix for VNA+dVH+Vxc...
<Band>  Solving the eigenvalue problem...
 KGrids1:  -0.43750  -0.31250  -0.18750  -0.06250   0.06250   0.18750   0.31250   0.43750 
 KGrids2:  -0.43750  -0.31250  -0.18750  -0.06250   0.06250   0.18750   0.31250   0.43750 
 KGrids3:   0.00000 
<Band_DFT>  Eigen, time=0.007906
<Band_DFT>  DM, time=0.013215
    1    C  MulP   2.0000  2.0000 sum   4.0000
    2    C  MulP   2.0000  2.0000 sum   4.0000
 Sum of MulP: up   =     4.00000 down          =     4.00000
              total=     8.00000 ideal(neutral)=     8.00000
<DFT>  Total Spin Moment (muB) =  0.000000000000
<DFT>  Mixing_weight= 0.002000000000
<DFT>  Uele   =   -3.715379962828  dUele     =   0.005809374836
<DFT>  NormRD =    0.018148500507  Criterion =   0.000000000100

******************* MD= 2  SCF= 9 *******************
<Poisson>  Poisson's equation using FFT...
<Set_Hamiltonian>  Hamiltonian matrix for VNA+dVH+Vxc...
<Band>  Solving the eigenvalue problem...
 KGrids1:  -0.43750  -0.31250  -0.18750  -0.06250   0.06250   0.18750   0.31250   0.43750 
 KGrids2:  -0.43750  -0.31250  -0.18750  -0.06250   0.06250   0.18750   0.31250   0.43750 
 KGrids3:   0.00000 
<Band_DFT>  Eigen, time=0.007906
<Band_DFT>  DM, time=0.013243
    1    C  MulP   2.0000  2.0000 sum   4.0000
    2    C  MulP   2.0000  2.0000 sum   4.0000
 Sum of MulP: up   =     4.00000 down          =     4.00000
              total=     8.00000 ideal(neutral)=     8.00000
<DFT>  Total Spin Moment (muB) =  0.000000000000
<DFT>  Mixing_weight= 0.002000000000
<DFT>  Uele   =   -3.719609431985  dUele     =   0.004229469157
<DFT>  NormRD =    0.001020324145  Criterion =   0.000000000100

******************* MD= 2  SCF=10 *******************
<Poisson>  Poisson's equation using FFT...
<Set_Hamiltonian>  Hamiltonian matrix for VNA+dVH+Vxc...
<Band>  Solving the eigenvalue problem...
 KGrids1:  -0.43750  -0.31250  -0.18750  -0.06250   0.06250   0.18750   0.31250   0.43750 
 KGrids2:  -0.43750  -0.31250  -0.18750  -0.06250   0.06250   0.18750   0.31250   0.43750 
 KGrids3:   0.00000 
<Band_DFT>  Eigen, time=0.007885
<Band_DFT>  DM, time=0.013206
    1    C  MulP   2.0000  2.0000 sum   4.0000
    2    C  MulP   2.0000  2.0000 sum   4.0000
 Sum of MulP: up   =     4.00000 down          =     4.00000
              total=     8.00000 ideal(neutral)=     8.00000
<DFT>  Total Spin Moment (muB) =  0.000000000000
<DFT>  Mixing_weight= 0.002000000000
<DFT>  Uele   =   -3.719151937128  dUele     =   0.000457494857
<DFT>  NormRD =    0.000123491500  Criterion =   0.000000000100

******************* MD= 2  SCF=11 *******************
<Poisson>  Poisson's equation using FFT...
<Set_Hamiltonian>  Hamiltonian matrix for VNA+dVH+Vxc...
<Band>  Solving the eigenvalue problem...
 KGrids1:  -0.43750  -0.31250  -0.18750  -0.06250   0.06250   0.18750   0.31250   0.43750 
 KGrids2:  -0.43750  -0.31250  -0.18750  -0.06250   0.06250   0.18750   0.31250   0.43750 
 KGrids3:   0.00000 
<Band_DFT>  Eigen, time=0.007920
<Band_DFT>  DM, time=0.013193
    1    C  MulP   2.0000  2.0000 sum   4.0000
    2    C  MulP   2.0000  2.0000 sum   4.0000
 Sum of MulP: up   =     4.00000 down          =     4.00000
              total=     8.00000 ideal(neutral)=     8.00000
<DFT>  Total Spin Moment (muB) =  0.000000000000
<DFT>  Mixing_weight= 0.002000000000
<DFT>  Uele   =   -3.719273487928  dUele     =   0.000121550800
<DFT>  NormRD =    0.000026118042  Criterion =   0.000000000100

******************* MD= 2  SCF=12 *******************
<Poisson>  Poisson's equation using FFT...
<Set_Hamiltonian>  Hamiltonian matrix for VNA+dVH+Vxc...
<Band>  Solving the eigenvalue problem...
 KGrids1:  -0.43750  -0.31250  -0.18750  -0.06250   0.06250   0.18750   0.31250   0.43750 
 KGrids2:  -0.43750  -0.31250  -0.18750  -0.06250   0.06250   0.18750   0.31250   0.43750 
 KGrids3:   0.00000 
<Band_DFT>  Eigen, time=0.007883
<Band_DFT>  DM, time=0.013213
    1    C  MulP   2.0000  2.0000 sum   4.0000
    2    C  MulP   2.0000  2.0000 sum   4.0000
 Sum of MulP: up   =     4.00000 down          =     4.00000
              total=     8.00000 ideal(neutral)=     8.00000
<DFT>  Total Spin Moment (muB) =  0.000000000000
<DFT>  Mixing_weight= 0.002000000000
<DFT>  Uele   =   -3.719259567771  dUele     =   0.000013920157
<DFT>  NormRD =    0.000001643120  Criterion =   0.000000000100

******************* MD= 2  SCF=13 *******************
<Poisson>  Poisson's equation using FFT...
<Set_Hamiltonian>  Hamiltonian matrix for VNA+dVH+Vxc...
<Band>  Solving the eigenvalue problem...
 KGrids1:  -0.43750  -0.31250  -0.18750  -0.06250   0.06250   0.18750   0.31250   0.43750 
 KGrids2:  -0.43750  -0.31250  -0.18750  -0.06250   0.06250   0.18750   0.31250   0.43750 
 KGrids3:   0.00000 
<Band_DFT>  Eigen, time=0.007897
<Band_DFT>  DM, time=0.013230
    1    C  MulP   2.0000  2.0000 sum   4.0000
    2    C  MulP   2.0000  2.0000 sum   4.0000
 Sum of MulP: up   =     4.00000 down          =     4.00000
              total=     8.00000 ideal(neutral)=     8.00000
<DFT>  Total Spin Moment (muB) =  0.000000000000
<DFT>  Mixing_weight= 0.002000000000
<DFT>  Uele   =   -3.719260394551  dUele     =   0.000000826779
<DFT>  NormRD =    0.000000465789  Criterion =   0.000000000100

******************* MD= 2  SCF=14 *******************
<Poisson>  Poisson's equation using FFT...
<Set_Hamiltonian>  Hamiltonian matrix for VNA+dVH+Vxc...
<Band>  Solving the eigenvalue problem...
 KGrids1:  -0.43750  -0.31250  -0.18750  -0.06250   0.06250   0.18750   0.31250   0.43750 
 KGrids2:  -0.43750  -0.31250  -0.18750  -0.06250   0.06250   0.18750   0.31250   0.43750 
 KGrids3:   0.00000 
<Band_DFT>  Eigen, time=0.007907
<Band_DFT>  DM, time=0.013178
    1    C  MulP   2.0000  2.0000 sum   4.0000
    2    C  MulP   2.0000  2.0000 sum   4.0000
 Sum of MulP: up   =     4.00000 down          =     4.00000
              total=     8.00000 ideal(neutral)=     8.00000
<DFT>  Total Spin Moment (muB) =  0.000000000000
<DFT>  Mixing_weight= 0.002000000000
<DFT>  Uele   =   -3.719260513881  dUele     =   0.000000119331
<DFT>  NormRD =    0.000000134131  Criterion =   0.000000000100

******************* MD= 2  SCF=15 *******************
<Poisson>  Poisson's equation using FFT...
<Set_Hamiltonian>  Hamiltonian matrix for VNA+dVH+Vxc...
<Band>  Solving the eigenvalue problem...
 KGrids1:  -0.43750  -0.31250  -0.18750  -0.06250   0.06250   0.18750   0.31250   0.43750 
 KGrids2:  -0.43750  -0.31250  -0.18750  -0.06250   0.06250   0.18750   0.31250   0.43750 
 KGrids3:   0.00000 
<Band_DFT>  Eigen, time=0.007903
<Band_DFT>  DM, time=0.013211
    1    C  MulP   2.0000  2.0000 sum   4.0000
    2    C  MulP   2.0000  2.0000 sum   4.0000
 Sum of MulP: up   =     4.00000 down          =     4.00000
              total=     8.00000 ideal(neutral)=     8.00000
<DFT>  Total Spin Moment (muB) =  0.000000000000
<DFT>  Mixing_weight= 0.002000000000
<DFT>  Uele   =   -3.719260542280  dUele     =   0.000000028399
<DFT>  NormRD =    0.000000019321  Criterion =   0.000000000100

******************* MD= 2  SCF=16 *******************
<Poisson>  Poisson's equation using FFT...
<Set_Hamiltonian>  Hamiltonian matrix for VNA+dVH+Vxc...
<Band>  Solving the eigenvalue problem...
 KGrids1:  -0.43750  -0.31250  -0.18750  -0.06250   0.06250   0.18750   0.31250   0.43750 
 KGrids2:  -0.43750  -0.31250  -0.18750  -0.06250   0.06250   0.18750   0.31250   0.43750 
 KGrids3:   0.00000 
<Band_DFT>  Eigen, time=0.007891
<Band_DFT>  DM, time=0.013217
    1    C  MulP   2.0000  2.0000 sum   4.0000
    2    C  MulP   2.0000  2.0000 sum   4.0000
 Sum of MulP: up   =     4.00000 down          =     4.00000
              total=     8.00000 ideal(neutral)=     8.00000
<DFT>  Total Spin Moment (muB) =  0.000000000000
<DFT>  Mixing_weight= 0.002000000000
<DFT>  Uele   =   -3.719260544819  dUele     =   0.000000002539
<DFT>  NormRD =    0.000000009302  Criterion =   0.000000000100

******************* MD= 2  SCF=17 *******************
<Poisson>  Poisson's equation using FFT...
<Set_Hamiltonian>  Hamiltonian matrix for VNA+dVH+Vxc...
<Band>  Solving the eigenvalue problem...
 KGrids1:  -0.43750  -0.31250  -0.18750  -0.06250   0.06250   0.18750   0.31250   0.43750 
 KGrids2:  -0.43750  -0.31250  -0.18750  -0.06250   0.06250   0.18750   0.31250   0.43750 
 KGrids3:   0.00000 
<Band_DFT>  Eigen, time=0.007886
<Band_DFT>  DM, time=0.013211
    1    C  MulP   2.0000  2.0000 sum   4.0000
    2    C  MulP   2.0000  2.0000 sum   4.0000
 Sum of MulP: up   =     4.00000 down          =     4.00000
              total=     8.00000 ideal(neutral)=     8.00000
<DFT>  Total Spin Moment (muB) =  0.000000000000
<DFT>  Mixing_weight= 0.002000000000
<DFT>  Uele   =   -3.719260547110  dUele     =   0.000000002291
<DFT>  NormRD =    0.000000000245  Criterion =   0.000000000100

******************* MD= 2  SCF=18 *******************
<Poisson>  Poisson's equation using FFT...
<Set_Hamiltonian>  Hamiltonian matrix for VNA+dVH+Vxc...
<Band>  Solving the eigenvalue problem...
 KGrids1:  -0.43750  -0.31250  -0.18750  -0.06250   0.06250   0.18750   0.31250   0.43750 
 KGrids2:  -0.43750  -0.31250  -0.18750  -0.06250   0.06250   0.18750   0.31250   0.43750 
 KGrids3:   0.00000 
<Band_DFT>  Eigen, time=0.007896
<Band_DFT>  DM, time=0.013192
    1    C  MulP   2.0000  2.0000 sum   4.0000
    2    C  MulP   2.0000  2.0000 sum   4.0000
 Sum of MulP: up   =     4.00000 down          =     4.00000
              total=     8.00000 ideal(neutral)=     8.00000
<DFT>  Total Spin Moment (muB) =  0.000000000000
<DFT>  Mixing_weight= 0.002000000000
<DFT>  Uele   =   -3.719260547174  dUele     =   0.000000000064
<DFT>  NormRD =    0.000000000003  Criterion =   0.000000000100
Band_DFT_kpath start
kpath
1 ( 0.000000000000000  0.000000000000000  0.000000000000000)->( 0.000000000000000  0.500000000000000  0.500000000000000)
2 ( 0.000000000000000  0.500000000000000  0.500000000000000)->( 0.250000000000000  0.750000000000000  0.500000000000000)
3 ( 0.250000000000000  0.750000000000000  0.500000000000000)->( 0.500000000000000  0.500000000000000  0.500000000000000)
4 ( 0.500000000000000  0.500000000000000  0.500000000000000)->( 0.000000000000000  0.000000000000000  0.000000000000000)
5 ( 0.000000000000000  0.000000000000000  0.000000000000000)->( 0.375000000000000  0.750000000000000  0.375000000000000)
6 ( 0.375000000000000  0.750000000000000  0.375000000000000)->( 0.000000000000000  0.500000000000000  0.500000000000000)

<Band_DFT_Dosout>
 KGrids1: 0.000001 0.125001 0.250001 0.375001 0.500001 0.625001 0.750001 0.875001 
 KGrids2: -0.000001 0.124999 0.249999 0.374999 0.499999 0.624999 0.749999 0.874999 
 KGrids3: 0.000002 
 iemin and iemax= 1 16
 write eigenvalues
 write eigenvectors
<MD= 2>  Force calculation
  Force calculation #1
  Force calculation #2
  Force calculation #3
  Force calculation #4
  Force calculation #5
<MD= 2>  Total Energy
  Force calculation #6
  Force calculation #7

*******************************************************
                  Dipole moment (Debye)                 
*******************************************************

 Absolute D        0.00001852

                      Dx                Dy                Dz
 Total             -0.00001310       -0.00001310        0.00000000
 Core              47.26355490       47.26355490        0.00000000
 Electron         -47.26356800      -47.26356799        0.00000000
 Back ground       -0.00000000       -0.00000000       -0.00000000

*******************************************************
                Total Energy (Hartree) at MD = 2        
*******************************************************

  Uele  =      -3.719260547174

  Ukin  =       8.510347796495
  UH0   =    -101.029571979933
  UH1   =       0.029518571994
  Una   =      -5.917665409674
  Unl   =      -1.081111094239
  Uxc0  =      -1.960480067700
  Uxc1  =      -1.960480067700
  Ucore =      91.793541944816
  Uhub  =       0.000000000000
  Ucs   =       0.000000000000
  Uzs   =       0.000000000000
  Uzo   =       0.000000000000
  Uef   =       0.000000000000
  UvdW  =       0.000000000000
  Utot  =     -11.615900305941

  Note:

  Utot = Ukin+UH0+UH1+Una+Unl+Uxc0+Uxc1+Ucore+Uhub+Ucs+Uzs+Uzo+Uef+UvdW

  Uele:   band energy
  Ukin:   kinetic energy
  UH0:    electric part of screened Coulomb energy
  UH1:    difference electron-electron Coulomb energy
  Una:    neutral atom potential energy
  Unl:    non-local potential energy
  Uxc0:   exchange-correlation energy for alpha spin
  Uxc1:   exchange-correlation energy for beta spin
  Ucore:  core-core Coulomb energy
  Uhub:   LDA+U energy
  Ucs:    constraint energy for spin orientation
  Uzs:    Zeeman term for spin magnetic moment
  Uzo:    Zeeman term for orbital magnetic moment
  Uef:    electric energy by electric field
  UvdW:   semi-empirical vdW energy 

  (see also PRB 72, 045121(2005) for the energy contributions)


*******************************************************
           Computational times (s) at MD = 2            
*******************************************************

  DFT in total      =   37.67214

  Set_OLP_Kin       =    0.96895
  Set_Nonlocal      =    1.62893
  Set_ProExpn_VNA   =    6.64995
  Set_Hamiltonian   =    2.15814
  Poisson           =    0.01620
  diagonalization   =    0.45583
  Mixing_DM         =    0.09773
  Force             =   22.73916
  Total_Energy      =    1.09373
  Set_Aden_Grid     =    0.01684
  Set_Orbitals_Grid =    0.11427
  Set_Density_Grid  =    1.39366
  RestartFileDFT    =    0.00125
  Mulliken_Charge   =    0.00168
  FFT(2D)_Density   =    0.01508

*******************************************************
             MD or geometry opt. at MD = 2              
*******************************************************

<Steepest_Descent>  SD_scaling= 1.259817325304
<Steepest_Descent>  |Maximum force| (Hartree/Bohr) = 0.212628637459
<Steepest_Descent>  Criterion       (Hartree/Bohr) = 0.000000010000

  atom=  1, XYZ(ang) Fxyz(a.u.)=   1.7747    0.8654   -0.0000    -0.0849   -0.1949    0.0000
  atom=  2, XYZ(ang) Fxyz(a.u.)=   0.6853    1.5946    0.0000     0.0849    0.1949   -0.0000

*******************************************************
        Analysis of neighbors and setting of grids        
*******************************************************


*******************************************************
  Allocation of atoms to proccesors at MD_iter=    3     
*******************************************************

 proc =   0  # of atoms=   1  estimated weight=         1.00000
 proc =   1  # of atoms=   1  estimated weight=         1.00000
 proc =   2  # of atoms=   0  estimated weight=         0.00000
 proc =   3  # of atoms=   0  estimated weight=         0.00000
 proc =   4  # of atoms=   0  estimated weight=         0.00000
 proc =   5  # of atoms=   0  estimated weight=         0.00000
 proc =   6  # of atoms=   0  estimated weight=         0.00000



TFNAN=      72   Average FNAN=  36.00000
TSNAN=       0   Average SNAN=   0.00000
<truncation> CpyCell= 3 ct_AN=   1 FNAN SNAN  36   0
<truncation> CpyCell= 3 ct_AN=   2 FNAN SNAN  36   0
<UCell_Box> Info. of cutoff energy and num. of grids
lattice vectors (bohr)
A  =  4.648725931904,  0.000000000000,  0.000000000000
B  = -2.324362965952,  4.025116355673,  0.000000000000
C  =  0.000000000000,  0.000000000000, 18.897259885789
reciprocal lattice vectors (bohr^-1)
RA =  1.351592973907,  0.780497351129, -0.000000000000
RB =  0.000000000000,  1.560994702258,  0.000000000000
RC =  0.000000000000, -0.000000000000,  0.332491871581
Required cutoff energy (Ryd) for 3D-grids = 180.0000
    Used cutoff energy (Ryd) for 3D-grids = 197.3144, 197.3731, 181.3310
Num. of grids of a-, b-, and c-axes = 18, 18, 81
Cell_Volume =    353.599154478183 (Bohr^3)
GridVol     =      0.013473523643 (Bohr^3)
Cell vectors (bohr) of the grid cell (gtv)
  gtv_a =  0.258262551772,  0.000000000000,  0.000000000000
  gtv_b = -0.129131275886,  0.223617575315,  0.000000000000
  gtv_c =  0.000000000000,  0.000000000000,  0.233299504763
  |gtv_a| =  0.258262551772
  |gtv_b| =  0.258224139851
  |gtv_c| =  0.233299504763
Num. of grids overlapping with atom    1 = 38890
Num. of grids overlapping with atom    2 = 38890

*******************************************************
             SCF calculation at MD = 3                
*******************************************************

<MD= 3>  Calculation of the overlap matrix
<MD= 3>  Calculation of the nonlocal matrix
<MD= 3>  Calculation of the VNA projector matrix

******************* MD= 3  SCF= 1 *******************
<Restart>  Found restart files
<Poisson>  Poisson's equation using FFT...
<Band>  Solving the eigenvalue problem...
 KGrids1:  -0.43750  -0.31250  -0.18750  -0.06250   0.06250   0.18750   0.31250   0.43750 
 KGrids2:  -0.43750  -0.31250  -0.18750  -0.06250   0.06250   0.18750   0.31250   0.43750 
 KGrids3:   0.00000 
<Band_DFT>  Eigen, time=0.007876
<Band_DFT>  DM, time=0.013311
    1    C  MulP   2.0000  2.0000 sum   4.0000
    2    C  MulP   2.0000  2.0000 sum   4.0000
 Sum of MulP: up   =     4.00000 down          =     4.00000
              total=     8.00000 ideal(neutral)=     8.00000
<DFT>  Total Spin Moment (muB) =  0.000000000000
<DFT>  Mixing_weight= 0.020000000000
<DFT>  Uele   =   -3.662976020742  dUele     =   1.000000000000
<DFT>  NormRD =    1.000000000000  Criterion =   0.000000000100

******************* MD= 3  SCF= 2 *******************
<Poisson>  Poisson's equation using FFT...
<Set_Hamiltonian>  Hamiltonian matrix for VNA+dVH+Vxc...
<Band>  Solving the eigenvalue problem...
 KGrids1:  -0.43750  -0.31250  -0.18750  -0.06250   0.06250   0.18750   0.31250   0.43750 
 KGrids2:  -0.43750  -0.31250  -0.18750  -0.06250   0.06250   0.18750   0.31250   0.43750 
 KGrids3:   0.00000 
<Band_DFT>  Eigen, time=0.007887
<Band_DFT>  DM, time=0.013285
    1    C  MulP   2.0000  2.0000 sum   4.0000
    2    C  MulP   2.0000  2.0000 sum   4.0000
 Sum of MulP: up   =     4.00000 down          =     4.00000
              total=     8.00000 ideal(neutral)=     8.00000
<DFT>  Total Spin Moment (muB) =  0.000000000000
<DFT>  Mixing_weight= 0.020000000000
<DFT>  Uele   =   -3.663125344515  dUele     =   0.000149323773
<DFT>  NormRD =    0.243982380229  Criterion =   0.000000000100

******************* MD= 3  SCF= 3 *******************
<Poisson>  Poisson's equation using FFT...
<Set_Hamiltonian>  Hamiltonian matrix for VNA+dVH+Vxc...
<Band>  Solving the eigenvalue problem...
 KGrids1:  -0.43750  -0.31250  -0.18750  -0.06250   0.06250   0.18750   0.31250   0.43750 
 KGrids2:  -0.43750  -0.31250  -0.18750  -0.06250   0.06250   0.18750   0.31250   0.43750 
 KGrids3:   0.00000 
<Band_DFT>  Eigen, time=0.007893
<Band_DFT>  DM, time=0.013307
    1    C  MulP   2.0000  2.0000 sum   4.0000
    2    C  MulP   2.0000  2.0000 sum   4.0000
 Sum of MulP: up   =     4.00000 down          =     4.00000
              total=     8.00000 ideal(neutral)=     8.00000
<DFT>  Total Spin Moment (muB) =  0.000000000000
<DFT>  Mixing_weight= 0.020000000000
<DFT>  Uele   =   -3.663273091947  dUele     =   0.000147747432
<DFT>  NormRD =    0.239120833005  Criterion =   0.000000000100

******************* MD= 3  SCF= 4 *******************
<Poisson>  Poisson's equation using FFT...
<Set_Hamiltonian>  Hamiltonian matrix for VNA+dVH+Vxc...
<Band>  Solving the eigenvalue problem...
 KGrids1:  -0.43750  -0.31250  -0.18750  -0.06250   0.06250   0.18750   0.31250   0.43750 
 KGrids2:  -0.43750  -0.31250  -0.18750  -0.06250   0.06250   0.18750   0.31250   0.43750 
 KGrids3:   0.00000 
<Band_DFT>  Eigen, time=0.007882
<Band_DFT>  DM, time=0.013297
    1    C  MulP   2.0000  2.0000 sum   4.0000
    2    C  MulP   2.0000  2.0000 sum   4.0000
 Sum of MulP: up   =     4.00000 down          =     4.00000
              total=     8.00000 ideal(neutral)=     8.00000
<DFT>  Total Spin Moment (muB) =  0.000000000000
<DFT>  Mixing_weight= 0.020000000000
<DFT>  Uele   =   -3.663419294328  dUele     =   0.000146202381
<DFT>  NormRD =    0.234358022670  Criterion =   0.000000000100

******************* MD= 3  SCF= 5 *******************
<Poisson>  Poisson's equation using FFT...
<Set_Hamiltonian>  Hamiltonian matrix for VNA+dVH+Vxc...
<Band>  Solving the eigenvalue problem...
 KGrids1:  -0.43750  -0.31250  -0.18750  -0.06250   0.06250   0.18750   0.31250   0.43750 
 KGrids2:  -0.43750  -0.31250  -0.18750  -0.06250   0.06250   0.18750   0.31250   0.43750 
 KGrids3:   0.00000 
<Band_DFT>  Eigen, time=0.007882
<Band_DFT>  DM, time=0.013294
    1    C  MulP   2.0000  2.0000 sum   4.0000
    2    C  MulP   2.0000  2.0000 sum   4.0000
 Sum of MulP: up   =     4.00000 down          =     4.00000
              total=     8.00000 ideal(neutral)=     8.00000
<DFT>  Total Spin Moment (muB) =  0.000000000000
<DFT>  Mixing_weight= 0.020000000000
<DFT>  Uele   =   -3.663563980153  dUele     =   0.000144685826
<DFT>  NormRD =    0.229691904412  Criterion =   0.000000000100

******************* MD= 3  SCF= 6 *******************
<Poisson>  Poisson's equation using FFT...
<Set_Hamiltonian>  Hamiltonian matrix for VNA+dVH+Vxc...
<Band>  Solving the eigenvalue problem...
 KGrids1:  -0.43750  -0.31250  -0.18750  -0.06250   0.06250   0.18750   0.31250   0.43750 
 KGrids2:  -0.43750  -0.31250  -0.18750  -0.06250   0.06250   0.18750   0.31250   0.43750 
 KGrids3:   0.00000 
<Band_DFT>  Eigen, time=0.007914
<Band_DFT>  DM, time=0.013281
    1    C  MulP   2.0000  2.0000 sum   4.0000
    2    C  MulP   2.0000  2.0000 sum   4.0000
 Sum of MulP: up   =     4.00000 down          =     4.00000
              total=     8.00000 ideal(neutral)=     8.00000
<DFT>  Total Spin Moment (muB) =  0.000000000000
<DFT>  Mixing_weight= 0.020000000000
<DFT>  Uele   =   -3.663707178932  dUele     =   0.000143198779
<DFT>  NormRD =    0.225120478587  Criterion =   0.000000000100

******************* MD= 3  SCF= 7 *******************
<Poisson>  Poisson's equation using FFT...
<Set_Hamiltonian>  Hamiltonian matrix for VNA+dVH+Vxc...
<Band>  Solving the eigenvalue problem...
 KGrids1:  -0.43750  -0.31250  -0.18750  -0.06250   0.06250   0.18750   0.31250   0.43750 
 KGrids2:  -0.43750  -0.31250  -0.18750  -0.06250   0.06250   0.18750   0.31250   0.43750 
 KGrids3:   0.00000 
<Band_DFT>  Eigen, time=0.007886
<Band_DFT>  DM, time=0.013304
    1    C  MulP   2.0000  2.0000 sum   4.0000
    2    C  MulP   2.0000  2.0000 sum   4.0000
 Sum of MulP: up   =     4.00000 down          =     4.00000
              total=     8.00000 ideal(neutral)=     8.00000
<DFT>  Total Spin Moment (muB) =  0.000000000000
<DFT>  Mixing_weight= 0.002000000000
<DFT>  Uele   =   -3.663848918008  dUele     =   0.000141739076
<DFT>  NormRD =    0.220641785975  Criterion =   0.000000000100

******************* MD= 3  SCF= 8 *******************
<Poisson>  Poisson's equation using FFT...
<Set_Hamiltonian>  Hamiltonian matrix for VNA+dVH+Vxc...
<Band>  Solving the eigenvalue problem...
 KGrids1:  -0.43750  -0.31250  -0.18750  -0.06250   0.06250   0.18750   0.31250   0.43750 
 KGrids2:  -0.43750  -0.31250  -0.18750  -0.06250   0.06250   0.18750   0.31250   0.43750 
 KGrids3:   0.00000 
<Band_DFT>  Eigen, time=0.007891
<Band_DFT>  DM, time=0.013279
    1    C  MulP   2.0000  2.0000 sum   4.0000
    2    C  MulP   2.0000  2.0000 sum   4.0000
 Sum of MulP: up   =     4.00000 down          =     4.00000
              total=     8.00000 ideal(neutral)=     8.00000
<DFT>  Total Spin Moment (muB) =  0.000000000000
<DFT>  Mixing_weight= 0.002000000000
<DFT>  Uele   =   -3.676282947388  dUele     =   0.012434029380
<DFT>  NormRD =    0.009309785725  Criterion =   0.000000000100

******************* MD= 3  SCF= 9 *******************
<Poisson>  Poisson's equation using FFT...
<Set_Hamiltonian>  Hamiltonian matrix for VNA+dVH+Vxc...
<Band>  Solving the eigenvalue problem...
 KGrids1:  -0.43750  -0.31250  -0.18750  -0.06250   0.06250   0.18750   0.31250   0.43750 
 KGrids2:  -0.43750  -0.31250  -0.18750  -0.06250   0.06250   0.18750   0.31250   0.43750 
 KGrids3:   0.00000 
<Band_DFT>  Eigen, time=0.007889
<Band_DFT>  DM, time=0.013280
    1    C  MulP   2.0000  2.0000 sum   4.0000
    2    C  MulP   2.0000  2.0000 sum   4.0000
 Sum of MulP: up   =     4.00000 down          =     4.00000
              total=     8.00000 ideal(neutral)=     8.00000
<DFT>  Total Spin Moment (muB) =  0.000000000000
<DFT>  Mixing_weight= 0.002000000000
<DFT>  Uele   =   -3.680064503688  dUele     =   0.003781556299
<DFT>  NormRD =    0.000618564262  Criterion =   0.000000000100

******************* MD= 3  SCF=10 *******************
<Poisson>  Poisson's equation using FFT...
<Set_Hamiltonian>  Hamiltonian matrix for VNA+dVH+Vxc...
<Band>  Solving the eigenvalue problem...
 KGrids1:  -0.43750  -0.31250  -0.18750  -0.06250   0.06250   0.18750   0.31250   0.43750 
 KGrids2:  -0.43750  -0.31250  -0.18750  -0.06250   0.06250   0.18750   0.31250   0.43750 
 KGrids3:   0.00000 
<Band_DFT>  Eigen, time=0.007895
<Band_DFT>  DM, time=0.013294
    1    C  MulP   2.0000  2.0000 sum   4.0000
    2    C  MulP   2.0000  2.0000 sum   4.0000
 Sum of MulP: up   =     4.00000 down          =     4.00000
              total=     8.00000 ideal(neutral)=     8.00000
<DFT>  Total Spin Moment (muB) =  0.000000000000
<DFT>  Mixing_weight= 0.002000000000
<DFT>  Uele   =   -3.680277533442  dUele     =   0.000213029755
<DFT>  NormRD =    0.000059350326  Criterion =   0.000000000100

******************* MD= 3  SCF=11 *******************
<Poisson>  Poisson's equation using FFT...
<Set_Hamiltonian>  Hamiltonian matrix for VNA+dVH+Vxc...
<Band>  Solving the eigenvalue problem...
 KGrids1:  -0.43750  -0.31250  -0.18750  -0.06250   0.06250   0.18750   0.31250   0.43750 
 KGrids2:  -0.43750  -0.31250  -0.18750  -0.06250   0.06250   0.18750   0.31250   0.43750 
 KGrids3:   0.00000 
<Band_DFT>  Eigen, time=0.007899
<Band_DFT>  DM, time=0.013301
    1    C  MulP   2.0000  2.0000 sum   4.0000
    2    C  MulP   2.0000  2.0000 sum   4.0000
 Sum of MulP: up   =     4.00000 down          =     4.00000
              total=     8.00000 ideal(neutral)=     8.00000
<DFT>  Total Spin Moment (muB) =  0.000000000000
<DFT>  Mixing_weight= 0.002000000000
<DFT>  Uele   =   -3.680292601790  dUele     =   0.000015068347
<DFT>  NormRD =    0.000006130958  Criterion =   0.000000000100

******************* MD= 3  SCF=12 *******************
<Poisson>  Poisson's equation using FFT...
<Set_Hamiltonian>  Hamiltonian matrix for VNA+dVH+Vxc...
<Band>  Solving the eigenvalue problem...
 KGrids1:  -0.43750  -0.31250  -0.18750  -0.06250   0.06250   0.18750   0.31250   0.43750 
 KGrids2:  -0.43750  -0.31250  -0.18750  -0.06250   0.06250   0.18750   0.31250   0.43750 
 KGrids3:   0.00000 
<Band_DFT>  Eigen, time=0.007889
<Band_DFT>  DM, time=0.013282
    1    C  MulP   2.0000  2.0000 sum   4.0000
    2    C  MulP   2.0000  2.0000 sum   4.0000
 Sum of MulP: up   =     4.00000 down          =     4.00000
              total=     8.00000 ideal(neutral)=     8.00000
<DFT>  Total Spin Moment (muB) =  0.000000000000
<DFT>  Mixing_weight= 0.002000000000
<DFT>  Uele   =   -3.680288083517  dUele     =   0.000004518272
<DFT>  NormRD =    0.000001169720  Criterion =   0.000000000100

******************* MD= 3  SCF=13 *******************
<Poisson>  Poisson's equation using FFT...
<Set_Hamiltonian>  Hamiltonian matrix for VNA+dVH+Vxc...
<Band>  Solving the eigenvalue problem...
 KGrids1:  -0.43750  -0.31250  -0.18750  -0.06250   0.06250   0.18750   0.31250   0.43750 
 KGrids2:  -0.43750  -0.31250  -0.18750  -0.06250   0.06250   0.18750   0.31250   0.43750 
 KGrids3:   0.00000 
<Band_DFT>  Eigen, time=0.007905
<Band_DFT>  DM, time=0.013244
    1    C  MulP   2.0000  2.0000 sum   4.0000
    2    C  MulP   2.0000  2.0000 sum   4.0000
 Sum of MulP: up   =     4.00000 down          =     4.00000
              total=     8.00000 ideal(neutral)=     8.00000
<DFT>  Total Spin Moment (muB) =  0.000000000000
<DFT>  Mixing_weight= 0.002000000000
<DFT>  Uele   =   -3.680288801787  dUele     =   0.000000718270
<DFT>  NormRD =    0.000000165801  Criterion =   0.000000000100

******************* MD= 3  SCF=14 *******************
<Poisson>  Poisson's equation using FFT...
<Set_Hamiltonian>  Hamiltonian matrix for VNA+dVH+Vxc...
<Band>  Solving the eigenvalue problem...
 KGrids1:  -0.43750  -0.31250  -0.18750  -0.06250   0.06250   0.18750   0.31250   0.43750 
 KGrids2:  -0.43750  -0.31250  -0.18750  -0.06250   0.06250   0.18750   0.31250   0.43750 
 KGrids3:   0.00000 
<Band_DFT>  Eigen, time=0.007894
<Band_DFT>  DM, time=0.013284
    1    C  MulP   2.0000  2.0000 sum   4.0000
    2    C  MulP   2.0000  2.0000 sum   4.0000
 Sum of MulP: up   =     4.00000 down          =     4.00000
              total=     8.00000 ideal(neutral)=     8.00000
<DFT>  Total Spin Moment (muB) =  0.000000000000
<DFT>  Mixing_weight= 0.002000000000
<DFT>  Uele   =   -3.680288609979  dUele     =   0.000000191808
<DFT>  NormRD =    0.000000035519  Criterion =   0.000000000100

******************* MD= 3  SCF=15 *******************
<Poisson>  Poisson's equation using FFT...
<Set_Hamiltonian>  Hamiltonian matrix for VNA+dVH+Vxc...
<Band>  Solving the eigenvalue problem...
 KGrids1:  -0.43750  -0.31250  -0.18750  -0.06250   0.06250   0.18750   0.31250   0.43750 
 KGrids2:  -0.43750  -0.31250  -0.18750  -0.06250   0.06250   0.18750   0.31250   0.43750 
 KGrids3:   0.00000 
<Band_DFT>  Eigen, time=0.007901
<Band_DFT>  DM, time=0.013705
    1    C  MulP   2.0000  2.0000 sum   4.0000
    2    C  MulP   2.0000  2.0000 sum   4.0000
 Sum of MulP: up   =     4.00000 down          =     4.00000
              total=     8.00000 ideal(neutral)=     8.00000
<DFT>  Total Spin Moment (muB) =  0.000000000000
<DFT>  Mixing_weight= 0.002000000000
<DFT>  Uele   =   -3.680288625748  dUele     =   0.000000015769
<DFT>  NormRD =    0.000000002385  Criterion =   0.000000000100

******************* MD= 3  SCF=16 *******************
<Poisson>  Poisson's equation using FFT...
<Set_Hamiltonian>  Hamiltonian matrix for VNA+dVH+Vxc...
<Band>  Solving the eigenvalue problem...
 KGrids1:  -0.43750  -0.31250  -0.18750  -0.06250   0.06250   0.18750   0.31250   0.43750 
 KGrids2:  -0.43750  -0.31250  -0.18750  -0.06250   0.06250   0.18750   0.31250   0.43750 
 KGrids3:   0.00000 
<Band_DFT>  Eigen, time=0.007888
<Band_DFT>  DM, time=0.013746
    1    C  MulP   2.0000  2.0000 sum   4.0000
    2    C  MulP   2.0000  2.0000 sum   4.0000
 Sum of MulP: up   =     4.00000 down          =     4.00000
              total=     8.00000 ideal(neutral)=     8.00000
<DFT>  Total Spin Moment (muB) =  0.000000000000
<DFT>  Mixing_weight= 0.002000000000
<DFT>  Uele   =   -3.680288625988  dUele     =   0.000000000240
<DFT>  NormRD =    0.000000000861  Criterion =   0.000000000100

******************* MD= 3  SCF=17 *******************
<Poisson>  Poisson's equation using FFT...
<Set_Hamiltonian>  Hamiltonian matrix for VNA+dVH+Vxc...
<Band>  Solving the eigenvalue problem...
 KGrids1:  -0.43750  -0.31250  -0.18750  -0.06250   0.06250   0.18750   0.31250   0.43750 
 KGrids2:  -0.43750  -0.31250  -0.18750  -0.06250   0.06250   0.18750   0.31250   0.43750 
 KGrids3:   0.00000 
<Band_DFT>  Eigen, time=0.007904
<Band_DFT>  DM, time=0.013673
    1    C  MulP   2.0000  2.0000 sum   4.0000
    2    C  MulP   2.0000  2.0000 sum   4.0000
 Sum of MulP: up   =     4.00000 down          =     4.00000
              total=     8.00000 ideal(neutral)=     8.00000
<DFT>  Total Spin Moment (muB) =  0.000000000000
<DFT>  Mixing_weight= 0.002000000000
<DFT>  Uele   =   -3.680288626161  dUele     =   0.000000000173
<DFT>  NormRD =    0.000000000030  Criterion =   0.000000000100

******************* MD= 3  SCF=18 *******************
<Poisson>  Poisson's equation using FFT...
<Set_Hamiltonian>  Hamiltonian matrix for VNA+dVH+Vxc...
<Band>  Solving the eigenvalue problem...
 KGrids1:  -0.43750  -0.31250  -0.18750  -0.06250   0.06250   0.18750   0.31250   0.43750 
 KGrids2:  -0.43750  -0.31250  -0.18750  -0.06250   0.06250   0.18750   0.31250   0.43750 
 KGrids3:   0.00000 
<Band_DFT>  Eigen, time=0.007870
<Band_DFT>  DM, time=0.013687
    1    C  MulP   2.0000  2.0000 sum   4.0000
    2    C  MulP   2.0000  2.0000 sum   4.0000
 Sum of MulP: up   =     4.00000 down          =     4.00000
              total=     8.00000 ideal(neutral)=     8.00000
<DFT>  Total Spin Moment (muB) =  0.000000000000
<DFT>  Mixing_weight= 0.002000000000
<DFT>  Uele   =   -3.680288626151  dUele     =   0.000000000011
<DFT>  NormRD =    0.000000000001  Criterion =   0.000000000100
Band_DFT_kpath start
kpath
1 ( 0.000000000000000  0.000000000000000  0.000000000000000)->( 0.000000000000000  0.500000000000000  0.500000000000000)
2 ( 0.000000000000000  0.500000000000000  0.500000000000000)->( 0.250000000000000  0.750000000000000  0.500000000000000)
3 ( 0.250000000000000  0.750000000000000  0.500000000000000)->( 0.500000000000000  0.500000000000000  0.500000000000000)
4 ( 0.500000000000000  0.500000000000000  0.500000000000000)->( 0.000000000000000  0.000000000000000  0.000000000000000)
5 ( 0.000000000000000  0.000000000000000  0.000000000000000)->( 0.375000000000000  0.750000000000000  0.375000000000000)
6 ( 0.375000000000000  0.750000000000000  0.375000000000000)->( 0.000000000000000  0.500000000000000  0.500000000000000)

<Band_DFT_Dosout>
 KGrids1: 0.000001 0.125001 0.250001 0.375001 0.500001 0.625001 0.750001 0.875001 
 KGrids2: -0.000001 0.124999 0.249999 0.374999 0.499999 0.624999 0.749999 0.874999 
 KGrids3: 0.000002 
 iemin and iemax= 1 16
 write eigenvalues
 write eigenvectors
<MD= 3>  Force calculation
  Force calculation #1
  Force calculation #2
  Force calculation #3
  Force calculation #4
  Force calculation #5
<MD= 3>  Total Energy
  Force calculation #6
  Force calculation #7

*******************************************************
                  Dipole moment (Debye)                 
*******************************************************

 Absolute D        0.00004108

                      Dx                Dy                Dz
 Total             -0.00002905       -0.00002905        0.00000000
 Core              47.26355490       47.26355490       -0.00000000
 Electron         -47.26358395      -47.26358395        0.00000000
 Back ground       -0.00000000       -0.00000000       -0.00000000

*******************************************************
                Total Energy (Hartree) at MD = 3        
*******************************************************

  Uele  =      -3.680288626151

  Ukin  =       8.400494422312
  UH0   =    -102.577599939258
  UH1   =       0.030047256974
  Una   =      -5.776477891877
  Unl   =      -1.072538454642
  Uxc0  =      -1.949875320805
  Uxc1  =      -1.949875320805
  Ucore =      93.226963942818
  Uhub  =       0.000000000000
  Ucs   =       0.000000000000
  Uzs   =       0.000000000000
  Uzo   =       0.000000000000
  Uef   =       0.000000000000
  UvdW  =       0.000000000000
  Utot  =     -11.668861305283

  Note:

  Utot = Ukin+UH0+UH1+Una+Unl+Uxc0+Uxc1+Ucore+Uhub+Ucs+Uzs+Uzo+Uef+UvdW

  Uele:   band energy
  Ukin:   kinetic energy
  UH0:    electric part of screened Coulomb energy
  UH1:    difference electron-electron Coulomb energy
  Una:    neutral atom potential energy
  Unl:    non-local potential energy
  Uxc0:   exchange-correlation energy for alpha spin
  Uxc1:   exchange-correlation energy for beta spin
  Ucore:  core-core Coulomb energy
  Uhub:   LDA+U energy
  Ucs:    constraint energy for spin orientation
  Uzs:    Zeeman term for spin magnetic moment
  Uzo:    Zeeman term for orbital magnetic moment
  Uef:    electric energy by electric field
  UvdW:   semi-empirical vdW energy 

  (see also PRB 72, 045121(2005) for the energy contributions)


*******************************************************
           Computational times (s) at MD = 3            
*******************************************************

  DFT in total      =   38.05714

  Set_OLP_Kin       =    0.99612
  Set_Nonlocal      =    1.67956
  Set_ProExpn_VNA   =    6.82688
  Set_Hamiltonian   =    2.04343
  Poisson           =    0.01627
  diagonalization   =    0.45788
  Mixing_DM         =    0.09737
  Force             =   22.93769
  Total_Energy      =    1.12097
  Set_Aden_Grid     =    0.01840
  Set_Orbitals_Grid =    0.11428
  Set_Density_Grid  =    1.40859
  RestartFileDFT    =    0.00133
  Mulliken_Charge   =    0.00165
  FFT(2D)_Density   =    0.01515

*******************************************************
             MD or geometry opt. at MD = 3              
*******************************************************

<Steepest_Descent>  SD_scaling= 1.259817325304
<Steepest_Descent>  |Maximum force| (Hartree/Bohr) = 0.143408041466
<Steepest_Descent>  Criterion       (Hartree/Bohr) = 0.000000010000

  atom=  1, XYZ(ang) Fxyz(a.u.)=   1.8702    0.8624   -0.0000    -0.1433    0.0045    0.0000
  atom=  2, XYZ(ang) Fxyz(a.u.)=   0.5898    1.5976   -0.0000     0.1433   -0.0045    0.0000

*******************************************************
        Analysis of neighbors and setting of grids        
*******************************************************


*******************************************************
  Allocation of atoms to proccesors at MD_iter=    4     
*******************************************************

 proc =   0  # of atoms=   1  estimated weight=         1.00000
 proc =   1  # of atoms=   1  estimated weight=         1.00000
 proc =   2  # of atoms=   0  estimated weight=         0.00000
 proc =   3  # of atoms=   0  estimated weight=         0.00000
 proc =   4  # of atoms=   0  estimated weight=         0.00000
 proc =   5  # of atoms=   0  estimated weight=         0.00000
 proc =   6  # of atoms=   0  estimated weight=         0.00000



TFNAN=      72   Average FNAN=  36.00000
TSNAN=       0   Average SNAN=   0.00000
<truncation> CpyCell= 3 ct_AN=   1 FNAN SNAN  36   0
<truncation> CpyCell= 3 ct_AN=   2 FNAN SNAN  36   0
<UCell_Box> Info. of cutoff energy and num. of grids
lattice vectors (bohr)
A  =  4.648725931904,  0.000000000000,  0.000000000000
B  = -2.324362965952,  4.025116355673,  0.000000000000
C  =  0.000000000000,  0.000000000000, 18.897259885789
reciprocal lattice vectors (bohr^-1)
RA =  1.351592973907,  0.780497351129, -0.000000000000
RB =  0.000000000000,  1.560994702258,  0.000000000000
RC =  0.000000000000, -0.000000000000,  0.332491871581
Required cutoff energy (Ryd) for 3D-grids = 180.0000
    Used cutoff energy (Ryd) for 3D-grids = 197.3144, 197.3731, 181.3310
Num. of grids of a-, b-, and c-axes = 18, 18, 81
Cell_Volume =    353.599154478183 (Bohr^3)
GridVol     =      0.013473523643 (Bohr^3)
Cell vectors (bohr) of the grid cell (gtv)
  gtv_a =  0.258262551772,  0.000000000000,  0.000000000000
  gtv_b = -0.129131275886,  0.223617575315,  0.000000000000
  gtv_c =  0.000000000000,  0.000000000000,  0.233299504763
  |gtv_a| =  0.258262551772
  |gtv_b| =  0.258224139851
  |gtv_c| =  0.233299504763
Num. of grids overlapping with atom    1 = 38878
Num. of grids overlapping with atom    2 = 38878

*******************************************************
             SCF calculation at MD = 4                
*******************************************************

<MD= 4>  Calculation of the overlap matrix
<MD= 4>  Calculation of the nonlocal matrix
<MD= 4>  Calculation of the VNA projector matrix

******************* MD= 4  SCF= 1 *******************
<Restart>  Found restart files
<Poisson>  Poisson's equation using FFT...
<Band>  Solving the eigenvalue problem...
 KGrids1:  -0.43750  -0.31250  -0.18750  -0.06250   0.06250   0.18750   0.31250   0.43750 
 KGrids2:  -0.43750  -0.31250  -0.18750  -0.06250   0.06250   0.18750   0.31250   0.43750 
 KGrids3:   0.00000 
<Band_DFT>  Eigen, time=0.007735
<Band_DFT>  DM, time=0.013726
    1    C  MulP   2.0000  2.0000 sum   4.0000
    2    C  MulP   2.0000  2.0000 sum   4.0000
 Sum of MulP: up   =     4.00000 down          =     4.00000
              total=     8.00000 ideal(neutral)=     8.00000
<DFT>  Total Spin Moment (muB) =  0.000000000000
<DFT>  Mixing_weight= 0.020000000000
<DFT>  Uele   =   -3.681841712012  dUele     =   1.000000000000
<DFT>  NormRD =    1.000000000000  Criterion =   0.000000000100

******************* MD= 4  SCF= 2 *******************
<Poisson>  Poisson's equation using FFT...
<Set_Hamiltonian>  Hamiltonian matrix for VNA+dVH+Vxc...
<Band>  Solving the eigenvalue problem...
 KGrids1:  -0.43750  -0.31250  -0.18750  -0.06250   0.06250   0.18750   0.31250   0.43750 
 KGrids2:  -0.43750  -0.31250  -0.18750  -0.06250   0.06250   0.18750   0.31250   0.43750 
 KGrids3:   0.00000 
<Band_DFT>  Eigen, time=0.007873
<Band_DFT>  DM, time=0.013715
    1    C  MulP   2.0000  2.0000 sum   4.0000
    2    C  MulP   2.0000  2.0000 sum   4.0000
 Sum of MulP: up   =     4.00000 down          =     4.00000
              total=     8.00000 ideal(neutral)=     8.00000
<DFT>  Total Spin Moment (muB) =  0.000000000000
<DFT>  Mixing_weight= 0.020000000000
<DFT>  Uele   =   -3.681888027925  dUele     =   0.000046315912
<DFT>  NormRD =    0.204898798358  Criterion =   0.000000000100

******************* MD= 4  SCF= 3 *******************
<Poisson>  Poisson's equation using FFT...
<Set_Hamiltonian>  Hamiltonian matrix for VNA+dVH+Vxc...
<Band>  Solving the eigenvalue problem...
 KGrids1:  -0.43750  -0.31250  -0.18750  -0.06250   0.06250   0.18750   0.31250   0.43750 
 KGrids2:  -0.43750  -0.31250  -0.18750  -0.06250   0.06250   0.18750   0.31250   0.43750 
 KGrids3:   0.00000 
<Band_DFT>  Eigen, time=0.007887
<Band_DFT>  DM, time=0.013753
    1    C  MulP   2.0000  2.0000 sum   4.0000
    2    C  MulP   2.0000  2.0000 sum   4.0000
 Sum of MulP: up   =     4.00000 down          =     4.00000
              total=     8.00000 ideal(neutral)=     8.00000
<DFT>  Total Spin Moment (muB) =  0.000000000000
<DFT>  Mixing_weight= 0.020000000000
<DFT>  Uele   =   -3.681932213655  dUele     =   0.000044185731
<DFT>  NormRD =    0.200568518527  Criterion =   0.000000000100

******************* MD= 4  SCF= 4 *******************
<Poisson>  Poisson's equation using FFT...
<Set_Hamiltonian>  Hamiltonian matrix for VNA+dVH+Vxc...
<Band>  Solving the eigenvalue problem...
 KGrids1:  -0.43750  -0.31250  -0.18750  -0.06250   0.06250   0.18750   0.31250   0.43750 
 KGrids2:  -0.43750  -0.31250  -0.18750  -0.06250   0.06250   0.18750   0.31250   0.43750 
 KGrids3:   0.00000 
<Band_DFT>  Eigen, time=0.007895
<Band_DFT>  DM, time=0.013730
    1    C  MulP   2.0000  2.0000 sum   4.0000
    2    C  MulP   2.0000  2.0000 sum   4.0000
 Sum of MulP: up   =     4.00000 down          =     4.00000
              total=     8.00000 ideal(neutral)=     8.00000
<DFT>  Total Spin Moment (muB) =  0.000000000000
<DFT>  Mixing_weight= 0.020000000000
<DFT>  Uele   =   -3.681974338909  dUele     =   0.000042125254
<DFT>  NormRD =    0.196331092904  Criterion =   0.000000000100

******************* MD= 4  SCF= 5 *******************
<Poisson>  Poisson's equation using FFT...
<Set_Hamiltonian>  Hamiltonian matrix for VNA+dVH+Vxc...
<Band>  Solving the eigenvalue problem...
 KGrids1:  -0.43750  -0.31250  -0.18750  -0.06250   0.06250   0.18750   0.31250   0.43750 
 KGrids2:  -0.43750  -0.31250  -0.18750  -0.06250   0.06250   0.18750   0.31250   0.43750 
 KGrids3:   0.00000 
<Band_DFT>  Eigen, time=0.007891
<Band_DFT>  DM, time=0.013694
    1    C  MulP   2.0000  2.0000 sum   4.0000
    2    C  MulP   2.0000  2.0000 sum   4.0000
 Sum of MulP: up   =     4.00000 down          =     4.00000
[...]
A  =  4.648725931904,  0.000000000000,  0.000000000000
B  = -2.324362965952,  4.025116355673,  0.000000000000
C  =  0.000000000000,  0.000000000000, 18.897259885789
reciprocal lattice vectors (bohr^-1)
RA =  1.351592973907,  0.780497351129, -0.000000000000
RB =  0.000000000000,  1.560994702258,  0.000000000000
RC =  0.000000000000, -0.000000000000,  0.332491871581
Required cutoff energy (Ryd) for 3D-grids = 180.0000
    Used cutoff energy (Ryd) for 3D-grids = 197.3144, 197.3731, 181.3310
Num. of grids of a-, b-, and c-axes = 18, 18, 81
Cell_Volume =    353.599154478183 (Bohr^3)
GridVol     =      0.013473523643 (Bohr^3)
Cell vectors (bohr) of the grid cell (gtv)
  gtv_a =  0.258262551772,  0.000000000000,  0.000000000000
  gtv_b = -0.129131275886,  0.223617575315,  0.000000000000
  gtv_c =  0.000000000000,  0.000000000000,  0.233299504763
  |gtv_a| =  0.258262551772
  |gtv_b| =  0.258224139851
  |gtv_c| =  0.233299504763
Num. of grids overlapping with atom    1 = 38916
Num. of grids overlapping with atom    2 = 38916

*******************************************************
             SCF calculation at MD =37                
*******************************************************

<MD=37>  Calculation of the overlap matrix
<MD=37>  Calculation of the nonlocal matrix
<MD=37>  Calculation of the VNA projector matrix

******************* MD=37  SCF= 1 *******************
<Restart>  Found restart files
<Poisson>  Poisson's equation using FFT...
<Band>  Solving the eigenvalue problem...
 KGrids1:  -0.43750  -0.31250  -0.18750  -0.06250   0.06250   0.18750   0.31250   0.43750 
 KGrids2:  -0.43750  -0.31250  -0.18750  -0.06250   0.06250   0.18750   0.31250   0.43750 
 KGrids3:   0.00000 
<Band_DFT>  Eigen, time=0.007788
<Band_DFT>  DM, time=0.013641
    1    C  MulP   2.0000  2.0000 sum   4.0000
    2    C  MulP   2.0000  2.0000 sum   4.0000
 Sum of MulP: up   =     4.00000 down          =     4.00000
              total=     8.00000 ideal(neutral)=     8.00000
<DFT>  Total Spin Moment (muB) =  0.000000000000
<DFT>  Mixing_weight= 0.020000000000
<DFT>  Uele   =   -3.679752860819  dUele     =   1.000000000000
<DFT>  NormRD =    1.000000000000  Criterion =   0.000000000100

******************* MD=37  SCF= 2 *******************
<Poisson>  Poisson's equation using FFT...
<Set_Hamiltonian>  Hamiltonian matrix for VNA+dVH+Vxc...
<Band>  Solving the eigenvalue problem...
 KGrids1:  -0.43750  -0.31250  -0.18750  -0.06250   0.06250   0.18750   0.31250   0.43750 
 KGrids2:  -0.43750  -0.31250  -0.18750  -0.06250   0.06250   0.18750   0.31250   0.43750 
 KGrids3:   0.00000 
<Band_DFT>  Eigen, time=0.007893
<Band_DFT>  DM, time=0.013715
    1    C  MulP   2.0000  2.0000 sum   4.0000
    2    C  MulP   2.0000  2.0000 sum   4.0000
 Sum of MulP: up   =     4.00000 down          =     4.00000
              total=     8.00000 ideal(neutral)=     8.00000
<DFT>  Total Spin Moment (muB) =  0.000000000000
<DFT>  Mixing_weight= 0.020000000000
<DFT>  Uele   =   -3.679752860807  dUele     =   0.000000000013
<DFT>  NormRD =    0.000000064588  Criterion =   0.000000000100

******************* MD=37  SCF= 3 *******************
<Poisson>  Poisson's equation using FFT...
<Set_Hamiltonian>  Hamiltonian matrix for VNA+dVH+Vxc...
<Band>  Solving the eigenvalue problem...
 KGrids1:  -0.43750  -0.31250  -0.18750  -0.06250   0.06250   0.18750   0.31250   0.43750 
 KGrids2:  -0.43750  -0.31250  -0.18750  -0.06250   0.06250   0.18750   0.31250   0.43750 
 KGrids3:   0.00000 
<Band_DFT>  Eigen, time=0.007911
<Band_DFT>  DM, time=0.013655
    1    C  MulP   2.0000  2.0000 sum   4.0000
    2    C  MulP   2.0000  2.0000 sum   4.0000
 Sum of MulP: up   =     4.00000 down          =     4.00000
              total=     8.00000 ideal(neutral)=     8.00000
<DFT>  Total Spin Moment (muB) =  0.000000000000
<DFT>  Mixing_weight= 0.002000000000
<DFT>  Uele   =   -3.679752860794  dUele     =   0.000000000012
<DFT>  NormRD =    0.000000062719  Criterion =   0.000000000100
Band_DFT_kpath start
kpath
1 ( 0.000000000000000  0.000000000000000  0.000000000000000)->( 0.000000000000000  0.500000000000000  0.500000000000000)
2 ( 0.000000000000000  0.500000000000000  0.500000000000000)->( 0.250000000000000  0.750000000000000  0.500000000000000)
3 ( 0.250000000000000  0.750000000000000  0.500000000000000)->( 0.500000000000000  0.500000000000000  0.500000000000000)
4 ( 0.500000000000000  0.500000000000000  0.500000000000000)->( 0.000000000000000  0.000000000000000  0.000000000000000)
5 ( 0.000000000000000  0.000000000000000  0.000000000000000)->( 0.375000000000000  0.750000000000000  0.375000000000000)
6 ( 0.375000000000000  0.750000000000000  0.375000000000000)->( 0.000000000000000  0.500000000000000  0.500000000000000)

<Band_DFT_Dosout>
 KGrids1: 0.000001 0.125001 0.250001 0.375001 0.500001 0.625001 0.750001 0.875001 
 KGrids2: -0.000001 0.124999 0.249999 0.374999 0.499999 0.624999 0.749999 0.874999 
 KGrids3: 0.000002 
 iemin and iemax= 1 16
 write eigenvalues
 write eigenvectors
<MD=37>  Force calculation
  Force calculation #1
  Force calculation #2
  Force calculation #3
  Force calculation #4
  Force calculation #5
<MD=37>  Total Energy
  Force calculation #6
  Force calculation #7

*******************************************************
                  Dipole moment (Debye)                 
*******************************************************

 Absolute D        0.00000906

                      Dx                Dy                Dz
 Total             -0.00000642       -0.00000640        0.00000001
 Core              47.26355476       47.26355467       -0.00000007
 Electron         -47.26356118      -47.26356107        0.00000008
 Back ground       -0.00000000       -0.00000000       -0.00000000

*******************************************************
                Total Energy (Hartree) at MD =37        
*******************************************************

  Uele  =      -3.679752860794

  Ukin  =       8.355393874145
  UH0   =    -102.565797543066
  UH1   =       0.030495978455
  Una   =      -5.723015677489
  Unl   =      -1.067991591226
  Uxc0  =      -1.945451068475
  Uxc1  =      -1.945451068475
  Ucore =      93.173915899227
  Uhub  =       0.000000000000
  Ucs   =       0.000000000000
  Uzs   =       0.000000000000
  Uzo   =       0.000000000000
  Uef   =       0.000000000000
  UvdW  =       0.000000000000
  Utot  =     -11.687901196903

  Note:

  Utot = Ukin+UH0+UH1+Una+Unl+Uxc0+Uxc1+Ucore+Uhub+Ucs+Uzs+Uzo+Uef+UvdW

  Uele:   band energy
  Ukin:   kinetic energy
  UH0:    electric part of screened Coulomb energy
  UH1:    difference electron-electron Coulomb energy
  Una:    neutral atom potential energy
  Unl:    non-local potential energy
  Uxc0:   exchange-correlation energy for alpha spin
  Uxc1:   exchange-correlation energy for beta spin
  Ucore:  core-core Coulomb energy
  Uhub:   LDA+U energy
  Ucs:    constraint energy for spin orientation
  Uzs:    Zeeman term for spin magnetic moment
  Uzo:    Zeeman term for orbital magnetic moment
  Uef:    electric energy by electric field
  UvdW:   semi-empirical vdW energy 

  (see also PRB 72, 045121(2005) for the energy contributions)


*******************************************************
           Computational times (s) at MD =37            
*******************************************************

  DFT in total      =   25.14252

  Set_OLP_Kin       =    0.99401
  Set_Nonlocal      =    1.67611
  Set_ProExpn_VNA   =    5.36103
  Set_Hamiltonian   =    0.39514
  Poisson           =    0.00323
  diagonalization   =    0.07807
  Mixing_DM         =    0.01616
  Force             =   14.74932
  Total_Energy      =    1.11825
  Set_Aden_Grid     =    0.01827
  Set_Orbitals_Grid =    0.11465
  Set_Density_Grid  =    0.29404
  RestartFileDFT    =    0.00114
  Mulliken_Charge   =    0.00055
  FFT(2D)_Density   =    0.00435

*******************************************************
             MD or geometry opt. at MD =37              
*******************************************************

<Steepest_Descent>  SD_scaling= 0.150011287118
<Steepest_Descent>  |Maximum force| (Hartree/Bohr) = 0.000000013074
<Steepest_Descent>  Criterion       (Hartree/Bohr) = 0.000000010000

  atom=  1, XYZ(ang) Fxyz(a.u.)=   1.8438    0.8758   -0.0000     0.0000    0.0000    0.0000
  atom=  2, XYZ(ang) Fxyz(a.u.)=   0.6162    1.5842   -0.0000    -0.0000   -0.0000   -0.0000

*******************************************************
        Analysis of neighbors and setting of grids        
*******************************************************


*******************************************************
  Allocation of atoms to proccesors at MD_iter=   38     
*******************************************************

 proc =   0  # of atoms=   1  estimated weight=         1.00000
 proc =   1  # of atoms=   1  estimated weight=         1.00000
 proc =   2  # of atoms=   0  estimated weight=         0.00000
 proc =   3  # of atoms=   0  estimated weight=         0.00000
 proc =   4  # of atoms=   0  estimated weight=         0.00000
 proc =   5  # of atoms=   0  estimated weight=         0.00000
 proc =   6  # of atoms=   0  estimated weight=         0.00000



TFNAN=      72   Average FNAN=  36.00000
TSNAN=       0   Average SNAN=   0.00000
<truncation> CpyCell= 3 ct_AN=   1 FNAN SNAN  36   0
<truncation> CpyCell= 3 ct_AN=   2 FNAN SNAN  36   0
<UCell_Box> Info. of cutoff energy and num. of grids
lattice vectors (bohr)
A  =  4.648725931904,  0.000000000000,  0.000000000000
B  = -2.324362965952,  4.025116355673,  0.000000000000
C  =  0.000000000000,  0.000000000000, 18.897259885789
reciprocal lattice vectors (bohr^-1)
RA =  1.351592973907,  0.780497351129, -0.000000000000
RB =  0.000000000000,  1.560994702258,  0.000000000000
RC =  0.000000000000, -0.000000000000,  0.332491871581
Required cutoff energy (Ryd) for 3D-grids = 180.0000
    Used cutoff energy (Ryd) for 3D-grids = 197.3144, 197.3731, 181.3310
Num. of grids of a-, b-, and c-axes = 18, 18, 81
Cell_Volume =    353.599154478183 (Bohr^3)
GridVol     =      0.013473523643 (Bohr^3)
Cell vectors (bohr) of the grid cell (gtv)
  gtv_a =  0.258262551772,  0.000000000000,  0.000000000000
  gtv_b = -0.129131275886,  0.223617575315,  0.000000000000
  gtv_c =  0.000000000000,  0.000000000000,  0.233299504763
  |gtv_a| =  0.258262551772
  |gtv_b| =  0.258224139851
  |gtv_c| =  0.233299504763
Num. of grids overlapping with atom    1 = 38916
Num. of grids overlapping with atom    2 = 38916

*******************************************************
             SCF calculation at MD =38                
*******************************************************

<MD=38>  Calculation of the overlap matrix
<MD=38>  Calculation of the nonlocal matrix
<MD=38>  Calculation of the VNA projector matrix

******************* MD=38  SCF= 1 *******************
<Restart>  Found restart files
<Poisson>  Poisson's equation using FFT...
<Band>  Solving the eigenvalue problem...
 KGrids1:  -0.43750  -0.31250  -0.18750  -0.06250   0.06250   0.18750   0.31250   0.43750 
 KGrids2:  -0.43750  -0.31250  -0.18750  -0.06250   0.06250   0.18750   0.31250   0.43750 
 KGrids3:   0.00000 
<Band_DFT>  Eigen, time=0.007852
<Band_DFT>  DM, time=0.013629
    1    C  MulP   2.0000  2.0000 sum   4.0000
    2    C  MulP   2.0000  2.0000 sum   4.0000
 Sum of MulP: up   =     4.00000 down          =     4.00000
              total=     8.00000 ideal(neutral)=     8.00000
<DFT>  Total Spin Moment (muB) =  0.000000000000
<DFT>  Mixing_weight= 0.020000000000
<DFT>  Uele   =   -3.679752876315  dUele     =   1.000000000000
<DFT>  NormRD =    1.000000000000  Criterion =   0.000000000100

******************* MD=38  SCF= 2 *******************
<Poisson>  Poisson's equation using FFT...
<Set_Hamiltonian>  Hamiltonian matrix for VNA+dVH+Vxc...
<Band>  Solving the eigenvalue problem...
 KGrids1:  -0.43750  -0.31250  -0.18750  -0.06250   0.06250   0.18750   0.31250   0.43750 
 KGrids2:  -0.43750  -0.31250  -0.18750  -0.06250   0.06250   0.18750   0.31250   0.43750 
 KGrids3:   0.00000 
<Band_DFT>  Eigen, time=0.007950
<Band_DFT>  DM, time=0.013584
    1    C  MulP   2.0000  2.0000 sum   4.0000
    2    C  MulP   2.0000  2.0000 sum   4.0000
 Sum of MulP: up   =     4.00000 down          =     4.00000
              total=     8.00000 ideal(neutral)=     8.00000
<DFT>  Total Spin Moment (muB) =  0.000000000000
<DFT>  Mixing_weight= 0.020000000000
<DFT>  Uele   =   -3.679752876222  dUele     =   0.000000000093
<DFT>  NormRD =    0.000000054044  Criterion =   0.000000000100

******************* MD=38  SCF= 3 *******************
<Poisson>  Poisson's equation using FFT...
<Set_Hamiltonian>  Hamiltonian matrix for VNA+dVH+Vxc...
<Band>  Solving the eigenvalue problem...
 KGrids1:  -0.43750  -0.31250  -0.18750  -0.06250   0.06250   0.18750   0.31250   0.43750 
 KGrids2:  -0.43750  -0.31250  -0.18750  -0.06250   0.06250   0.18750   0.31250   0.43750 
 KGrids3:   0.00000 
<Band_DFT>  Eigen, time=0.007931
<Band_DFT>  DM, time=0.013606
    1    C  MulP   2.0000  2.0000 sum   4.0000
    2    C  MulP   2.0000  2.0000 sum   4.0000
 Sum of MulP: up   =     4.00000 down          =     4.00000
              total=     8.00000 ideal(neutral)=     8.00000
<DFT>  Total Spin Moment (muB) =  0.000000000000
<DFT>  Mixing_weight= 0.002000000000
<DFT>  Uele   =   -3.679752876129  dUele     =   0.000000000093
<DFT>  NormRD =    0.000000046452  Criterion =   0.000000000100
Band_DFT_kpath start
kpath
1 ( 0.000000000000000  0.000000000000000  0.000000000000000)->( 0.000000000000000  0.500000000000000  0.500000000000000)
2 ( 0.000000000000000  0.500000000000000  0.500000000000000)->( 0.250000000000000  0.750000000000000  0.500000000000000)
3 ( 0.250000000000000  0.750000000000000  0.500000000000000)->( 0.500000000000000  0.500000000000000  0.500000000000000)
4 ( 0.500000000000000  0.500000000000000  0.500000000000000)->( 0.000000000000000  0.000000000000000  0.000000000000000)
5 ( 0.000000000000000  0.000000000000000  0.000000000000000)->( 0.375000000000000  0.750000000000000  0.375000000000000)
6 ( 0.375000000000000  0.750000000000000  0.375000000000000)->( 0.000000000000000  0.500000000000000  0.500000000000000)

<Band_DFT_Dosout>
 KGrids1: 0.000001 0.125001 0.250001 0.375001 0.500001 0.625001 0.750001 0.875001 
 KGrids2: -0.000001 0.124999 0.249999 0.374999 0.499999 0.624999 0.749999 0.874999 
 KGrids3: 0.000002 
 iemin and iemax= 1 16
 write eigenvalues
 write eigenvectors
<MD=38>  Force calculation
  Force calculation #1
  Force calculation #2
  Force calculation #3
  Force calculation #4
  Force calculation #5
<MD=38>  Total Energy
  Force calculation #6
  Force calculation #7

*******************************************************
                  Dipole moment (Debye)                 
*******************************************************

 Absolute D        0.00000905

                      Dx                Dy                Dz
 Total             -0.00000636       -0.00000643        0.00000000
 Core              47.26355476       47.26355467       -0.00000008
 Electron         -47.26356112      -47.26356110        0.00000008
 Back ground       -0.00000000       -0.00000000       -0.00000000

*******************************************************
                Total Energy (Hartree) at MD =38        
*******************************************************

  Uele  =      -3.679752876129

  Ukin  =       8.355393874232
  UH0   =    -102.565797543071
  UH1   =       0.030495978329
  Una   =      -5.723015678517
  Unl   =      -1.067991591953
  Uxc0  =      -1.945451068246
  Uxc1  =      -1.945451068246
  Ucore =      93.173915899248
  Uhub  =       0.000000000000
  Ucs   =       0.000000000000
  Uzs   =       0.000000000000
  Uzo   =       0.000000000000
  Uef   =       0.000000000000
  UvdW  =       0.000000000000
  Utot  =     -11.687901198225

  Note:

  Utot = Ukin+UH0+UH1+Una+Unl+Uxc0+Uxc1+Ucore+Uhub+Ucs+Uzs+Uzo+Uef+UvdW

  Uele:   band energy
  Ukin:   kinetic energy
  UH0:    electric part of screened Coulomb energy
  UH1:    difference electron-electron Coulomb energy
  Una:    neutral atom potential energy
  Unl:    non-local potential energy
  Uxc0:   exchange-correlation energy for alpha spin
  Uxc1:   exchange-correlation energy for beta spin
  Ucore:  core-core Coulomb energy
  Uhub:   LDA+U energy
  Ucs:    constraint energy for spin orientation
  Uzs:    Zeeman term for spin magnetic moment
  Uzo:    Zeeman term for orbital magnetic moment
  Uef:    electric energy by electric field
  UvdW:   semi-empirical vdW energy 

  (see also PRB 72, 045121(2005) for the energy contributions)


*******************************************************
           Computational times (s) at MD =38            
*******************************************************

  DFT in total      =   25.67504

  Set_OLP_Kin       =    0.99424
  Set_Nonlocal      =    1.67570
  Set_ProExpn_VNA   =    5.46877
  Set_Hamiltonian   =    0.39382
  Poisson           =    0.00323
  diagonalization   =    0.07783
  Mixing_DM         =    0.01611
  Force             =   15.17338
  Total_Energy      =    1.12177
  Set_Aden_Grid     =    0.01822
  Set_Orbitals_Grid =    0.11381
  Set_Density_Grid  =    0.29342
  RestartFileDFT    =    0.00135
  Mulliken_Charge   =    0.00054
  FFT(2D)_Density   =    0.00434

*******************************************************
             MD or geometry opt. at MD =38              
*******************************************************

<Steepest_Descent>  SD_scaling= 0.150011287118
<Steepest_Descent>  |Maximum force| (Hartree/Bohr) = 0.000000009647
<Steepest_Descent>  Criterion       (Hartree/Bohr) = 0.000000010000

  atom=  1, XYZ(ang) Fxyz(a.u.)=   1.8438    0.8758   -0.0000     0.0000    0.0000    0.0000
  atom=  2, XYZ(ang) Fxyz(a.u.)=   0.6162    1.5842   -0.0000    -0.0000   -0.0000   -0.0000

outputting data on grids to files...


***********************************************************
***********************************************************
               Computational Time (second)                 
***********************************************************
***********************************************************

                               Min_ID   Min_Time       Max_ID   Max_Time
   Total Computational Time =     3     1004.697          0     1004.770
   readfile                 =     6        5.068          0        5.068
   truncation               =     0        0.000          0        0.000
   MD_pac                   =     0        0.017          5        0.023
   OutData                  =     3        0.000          0        0.072
   DFT                      =     1      993.311          4      993.748

*** In DFT ***

   Set_OLP_Kin              =     4        3.004          0       36.035
   Set_Nonlocal             =     0       62.250          4       95.295
   Set_ProExpn_VNA          =     2       50.463          0      197.984
   Set_Hamiltonian          =     2       44.329          0       44.332
   Poisson                  =     6        0.367          1        0.368
   Diagonalization          =     0       10.290          2       10.301
   Mixing_DM                =     6        2.137          3        2.138
   Force                    =     2      553.832          0      553.832
   Total_Energy             =     3       41.643          0       41.653
   Set_Aden_Grid            =     0        0.677          2      148.199
   Set_Orbitals_Grid        =     3        0.000          0        4.277
   Set_Density_Grid         =     4       26.908          1       26.941
   RestartFileDFT           =     0        0.168          6        4.484
   Mulliken_Charge          =     0        0.044          4        0.045
   FFT(2D)_Density          =     0        0.369          4        0.370
   Others                   =     1       11.814          4       16.724

The calculation was normally finished.
