BEGIN_INFO
Fermi Energy: -0.121612548828
END_INFO

BEGIN_BLOCK_BANDGRID_3D
comment_line
BEGIN_BANDGRID_3D_simple_example
26
9 9 2
0.0 0.0 0.0
   1.3515929739    0.7804973511   -0.0000000000
   0.0000000000    1.5609947023    0.0000000000
   0.0000000000   -0.0000000000    0.3324918716
BAND:  1
  -0.84087   -0.84087 
  -0.82729   -0.82729 
  -0.78679   -0.78679 
  -0.72087   -0.72087 
  -0.64730   -0.64730 
  -0.72087   -0.72087 
  -0.78679   -0.78679 
  -0.82729   -0.82729 
  -0.84087   -0.84087 

  -0.82729   -0.82729 
  -0.80023   -0.80023 
  -0.74696   -0.74696 
  -0.67077   -0.67077 
  -0.67080   -0.67080 
  -0.74699   -0.74699 
  -0.80025   -0.80025 
  -0.82730   -0.82730 
  -0.82729   -0.82729 

  -0.78681   -0.78681 
  -0.74697   -0.74697 
  -0.68282   -0.68282 
  -0.61255   -0.61255 
  -0.68287   -0.68287 
  -0.74702   -0.74702 
  -0.78683   -0.78683 
  -0.80026   -0.80026 
  -0.78681   -0.78681 

  -0.72091   -0.72091 
  -0.67081   -0.67081 
  -0.61260   -0.61260 
  -0.61217   -0.61217 
  -0.67082   -0.67082 
  -0.72096   -0.72096 
  -0.74704   -0.74704 
  -0.74702   -0.74702 
  -0.72091   -0.72091 

  -0.64738   -0.64738 
  -0.67087   -0.67087 
  -0.68293   -0.68293 
  -0.67085   -0.67085 
  -0.64707   -0.64707 
  -0.67085   -0.67085 
  -0.68292   -0.68292 
  -0.67087   -0.67087 
  -0.64738   -0.64738 

  -0.72091   -0.72091 
  -0.74702   -0.74702 
  -0.74704   -0.74704 
  -0.72096   -0.72096 
  -0.67082   -0.67082 
  -0.61217   -0.61217 
  -0.61260   -0.61260 
  -0.67081   -0.67081 
  -0.72091   -0.72091 

  -0.78681   -0.78681 
  -0.80026   -0.80026 
  -0.78683   -0.78683 
  -0.74702   -0.74702 
  -0.68287   -0.68287 
  -0.61255   -0.61255 
  -0.68282   -0.68282 
  -0.74697   -0.74697 
  -0.78681   -0.78681 

  -0.82729   -0.82729 
  -0.82730   -0.82730 
  -0.80025   -0.80025 
  -0.74699   -0.74699 
  -0.67080   -0.67080 
  -0.67077   -0.67077 
  -0.74696   -0.74696 
  -0.80023   -0.80023 
  -0.82729   -0.82729 

  -0.84087   -0.84087 
  -0.82729   -0.82729 
  -0.78679   -0.78679 
  -0.72087   -0.72087 
  -0.64730   -0.64730 
  -0.72087   -0.72087 
  -0.78679   -0.78679 
  -0.82729   -0.82729 
  -0.84087   -0.84087 
BAND:  2
  -0.40089   -0.40089 
  -0.38487   -0.38487 
  -0.39769   -0.39769 
  -0.51712   -0.51712 
  -0.61007   -0.61007 
  -0.51712   -0.51712 
  -0.39769   -0.39769 
  -0.38487   -0.38487 
  -0.40089   -0.40089 

  -0.38487   -0.38487 
  -0.35336   -0.35336 
  -0.45508   -0.45508 
  -0.56483   -0.56483 
  -0.56485   -0.56485 
  -0.45541   -0.45541 
  -0.35483   -0.35483 
  -0.38485   -0.38485 
  -0.38487   -0.38487 

  -0.39784   -0.39784 
  -0.45520   -0.45520 
  -0.50980   -0.50980 
  -0.58067   -0.58067 
  -0.51059   -0.51059 
  -0.45616   -0.45616 
  -0.39883   -0.39883 
  -0.35492   -0.35492 
  -0.39784   -0.39784 

  -0.51723   -0.51723 
  -0.56493   -0.56493 
  -0.58072   -0.58072 
  -0.58172   -0.58172 
  -0.56555   -0.56555 
  -0.51786   -0.51786 
  -0.45613   -0.45613 
  -0.45550   -0.45550 
  -0.51723   -0.51723 

  -0.61014   -0.61014 
  -0.56492   -0.56492 
  -0.51059   -0.51059 
  -0.56551   -0.56551 
  -0.61103   -0.61103 
  -0.56552   -0.56552 
  -0.51059   -0.51059 
  -0.56492   -0.56492 
  -0.61014   -0.61014 

  -0.51723   -0.51723 
  -0.45550   -0.45550 
  -0.45613   -0.45613 
  -0.51785   -0.51785 
  -0.56555   -0.56555 
  -0.58172   -0.58172 
  -0.58072   -0.58072 
  -0.56493   -0.56493 
  -0.51723   -0.51723 

  -0.39783   -0.39783 
  -0.35492   -0.35492 
  -0.39882   -0.39882 
  -0.45615   -0.45615 
  -0.51059   -0.51059 
  -0.58067   -0.58067 
  -0.50980   -0.50980 
  -0.45520   -0.45520 
  -0.39783   -0.39783 

  -0.38487   -0.38487 
  -0.38485   -0.38485 
  -0.35483   -0.35483 
  -0.45541   -0.45541 
  -0.56485   -0.56485 
  -0.56483   -0.56483 
  -0.45508   -0.45508 
  -0.35336   -0.35336 
  -0.38487   -0.38487 

  -0.40089   -0.40089 
  -0.38487   -0.38487 
  -0.39769   -0.39769 
  -0.51712   -0.51712 
  -0.61007   -0.61007 
  -0.51712   -0.51712 
  -0.39769   -0.39769 
  -0.38487   -0.38487 
  -0.40089   -0.40089 
BAND:  3
  -0.24112   -0.24112 
  -0.28870   -0.28870 
  -0.33790   -0.33790 
  -0.34987   -0.34987 
  -0.36299   -0.36299 
  -0.34987   -0.34987 
  -0.33790   -0.33790 
  -0.28870   -0.28870 
  -0.24112   -0.24112 

  -0.28889   -0.28889 
  -0.35332   -0.35332 
  -0.37190   -0.37190 
  -0.39947   -0.39947 
  -0.39940   -0.39940 
  -0.37149   -0.37149 
  -0.35325   -0.35325 
  -0.29049   -0.29049 
  -0.28889   -0.28889 

  -0.33792   -0.33792 
  -0.37174   -0.37174 
  -0.45551   -0.45551 
  -0.48354   -0.48354 
  -0.45458   -0.45458 
  -0.37052   -0.37052 
  -0.33780   -0.33780 
  -0.35326   -0.35326 
  -0.33792   -0.33792 

  -0.34968   -0.34968 
  -0.39929   -0.39929 
  -0.48343   -0.48343 
  -0.48277   -0.48277 
  -0.39839   -0.39839 
  -0.34864   -0.34864 
  -0.37053   -0.37053 
  -0.37135   -0.37135 
  -0.34968   -0.34968 

  -0.36279   -0.36279 
  -0.39924   -0.39924 
  -0.45452   -0.45452 
  -0.39840   -0.39840 
  -0.36183   -0.36183 
  -0.39840   -0.39840 
  -0.45453   -0.45453 
  -0.39924   -0.39924 
  -0.36279   -0.36279 

  -0.34968   -0.34968 
  -0.37135   -0.37135 
  -0.37053   -0.37053 
  -0.34863   -0.34863 
  -0.39839   -0.39839 
  -0.48277   -0.48277 
  -0.48343   -0.48343 
  -0.39929   -0.39929 
  -0.34968   -0.34968 

  -0.33792   -0.33792 
  -0.35326   -0.35326 
  -0.33781   -0.33781 
  -0.37052   -0.37052 
  -0.45458   -0.45458 
  -0.48354   -0.48354 
  -0.45551   -0.45551 
  -0.37174   -0.37174 
  -0.33792   -0.33792 

  -0.28889   -0.28889 
  -0.29049   -0.29049 
  -0.35325   -0.35325 
  -0.37149   -0.37149 
  -0.39940   -0.39940 
  -0.39947   -0.39947 
  -0.37190   -0.37190 
  -0.35332   -0.35332 
  -0.28889   -0.28889 

  -0.24112   -0.24112 
  -0.28870   -0.28870 
  -0.33790   -0.33790 
  -0.34987   -0.34987 
  -0.36299   -0.36299 
  -0.34987   -0.34987 
  -0.33790   -0.33790 
  -0.28870   -0.28870 
  -0.24112   -0.24112 
BAND:  4
  -0.23811   -0.23811 
  -0.26589   -0.26589 
  -0.31337   -0.31337 
  -0.26589   -0.26589 
  -0.20997   -0.20997 
  -0.26589   -0.26589 
  -0.31337   -0.31337 
  -0.26589   -0.26589 
  -0.23811   -0.23811 

  -0.26570   -0.26570 
  -0.31733   -0.31733 
  -0.29281   -0.29281 
  -0.21687   -0.21687 
  -0.21674   -0.21674 
  -0.29269   -0.29269 
  -0.31571   -0.31571 
  -0.26397   -0.26397 
  -0.26570   -0.26570 

  -0.31318   -0.31318 
  -0.29282   -0.29282 
  -0.22277   -0.22277 
  -0.16013   -0.16013 
  -0.22237   -0.22237 
  -0.29258   -0.29258 
  -0.31189   -0.31189 
  -0.31561   -0.31561 
  -0.31318   -0.31318 

  -0.26591   -0.26591 
  -0.21688   -0.21688 
  -0.16013   -0.16013 
  -0.15912   -0.15912 
  -0.21612   -0.21612 
  -0.26552   -0.26552 
  -0.29259   -0.29259 
  -0.29271   -0.29271 
  -0.26591   -0.26591 

  -0.20999   -0.20999 
  -0.21676   -0.21676 
  -0.22240   -0.22240 
  -0.21613   -0.21613 
  -0.20895   -0.20895 
  -0.21613   -0.21613 
  -0.22239   -0.22239 
  -0.21676   -0.21676 
  -0.20999   -0.20999 

  -0.26591   -0.26591 
  -0.29271   -0.29271 
  -0.29259   -0.29259 
  -0.26552   -0.26552 
  -0.21612   -0.21612 
  -0.15912   -0.15912 
  -0.16013   -0.16013 
  -0.21688   -0.21688 
  -0.26591   -0.26591 

  -0.31318   -0.31318 
  -0.31561   -0.31561 
  -0.31189   -0.31189 
  -0.29258   -0.29258 
  -0.22237   -0.22237 
  -0.16013   -0.16013 
  -0.22277   -0.22277 
  -0.29282   -0.29282 
  -0.31318   -0.31318 

  -0.26570   -0.26570 
  -0.26397   -0.26397 
  -0.31571   -0.31571 
  -0.29269   -0.29269 
  -0.21674   -0.21674 
  -0.21687   -0.21687 
  -0.29281   -0.29281 
  -0.31733   -0.31733 
  -0.26570   -0.26570 

  -0.23811   -0.23811 
  -0.26589   -0.26589 
  -0.31337   -0.31337 
  -0.26589   -0.26589 
  -0.20997   -0.20997 
  -0.26589   -0.26589 
  -0.31337   -0.31337 
  -0.26589   -0.26589 
  -0.23811   -0.23811 
BAND:  5
   0.18210    0.18210 
   0.18823    0.18823 
   0.15604    0.15604 
   0.02331    0.02331 
  -0.05529   -0.05529 
   0.02331    0.02331 
   0.15604    0.15604 
   0.18823    0.18823 
   0.18210    0.18210 

   0.18839    0.18839 
   0.19384    0.19384 
   0.07617    0.07617 
  -0.03545   -0.03545 
  -0.03572   -0.03572 
   0.07565    0.07565 
   0.19328    0.19328 
   0.19051    0.19051 
   0.18839    0.18839 

   0.15596    0.15596 
   0.07611    0.07611 
  -0.01532   -0.01532 
  -0.08508   -0.08508 
  -0.01623   -0.01623 
   0.07512    0.07512 
   0.15527    0.15527 
   0.19323    0.19323 
   0.15596    0.15596 

   0.02321    0.02321 
  -0.03554   -0.03554 
  -0.08512   -0.08512 
  -0.08648   -0.08648 
  -0.03704   -0.03704 
   0.02209    0.02209 
   0.07511    0.07511 
   0.07557    0.07557 
   0.02321    0.02321 

  -0.05541   -0.05541 
  -0.03581   -0.03581 
  -0.01625   -0.01625 
  -0.03703   -0.03703 
  -0.05720   -0.05720 
  -0.03703   -0.03703 
  -0.01626   -0.01626 
  -0.03581   -0.03581 
  -0.05541   -0.05541 

   0.02321    0.02321 
   0.07558    0.07558 
   0.07511    0.07511 
   0.02209    0.02209 
  -0.03704   -0.03704 
  -0.08648   -0.08648 
  -0.08512   -0.08512 
  -0.03554   -0.03554 
   0.02321    0.02321 

   0.15596    0.15596 
   0.19323    0.19323 
   0.15527    0.15527 
   0.07513    0.07513 
  -0.01623   -0.01623 
  -0.08508   -0.08508 
  -0.01532   -0.01532 
   0.07611    0.07611 
   0.15596    0.15596 

   0.18839    0.18839 
   0.19051    0.19051 
   0.19328    0.19328 
   0.07565    0.07565 
  -0.03572   -0.03572 
  -0.03545   -0.03545 
   0.07616    0.07616 
   0.19384    0.19384 
   0.18839    0.18839 

   0.18210    0.18210 
   0.18823    0.18823 
   0.15604    0.15604 
   0.02331    0.02331 
  -0.05529   -0.05529 
   0.02331    0.02331 
   0.15604    0.15604 
   0.18823    0.18823 
   0.18210    0.18210 
BAND:  6
   0.18615    0.18615 
   0.24213    0.24213 
   0.18133    0.18133 
   0.16801    0.16801 
   0.16239    0.16239 
   0.16800    0.16800 
   0.18133    0.18133 
   0.24213    0.24213 
   0.18615    0.18615 

   0.24204    0.24204 
   0.21794    0.21794 
   0.22883    0.22883 
   0.22034    0.22034 
   0.22056    0.22056 
   0.22992    0.22992 
   0.22128    0.22128 
   0.23935    0.23935 
   0.24204    0.24204 

   0.18158    0.18158 
   0.22908    0.22908 
   0.33847    0.33847 
   0.34347    0.34347 
   0.34214    0.34214 
   0.23057    0.23057 
   0.18248    0.18248 
   0.22153    0.22153 
   0.18158    0.18158 

   0.16830    0.16830 
   0.22065    0.22065 
   0.34380    0.34380 
   0.34403    0.34403 
   0.22120    0.22120 
   0.16870    0.16870 
   0.23066    0.23066 
   0.23026    0.23026 
   0.16830    0.16830 

   0.16269    0.16269 
   0.22089    0.22089 
   0.34246    0.34246 
   0.22122    0.22122 
   0.16298    0.16298 
   0.22122    0.22122 
   0.34246    0.34246 
   0.22089    0.22089 
   0.16269    0.16269 

   0.16830    0.16830 
   0.23026    0.23026 
   0.23066    0.23066 
   0.16870    0.16870 
   0.22120    0.22120 
   0.34403    0.34403 
   0.34381    0.34381 
   0.22065    0.22065 
   0.16830    0.16830 

   0.18158    0.18158 
   0.22153    0.22153 
   0.18248    0.18248 
   0.23057    0.23057 
   0.34213    0.34213 
   0.34347    0.34347 
   0.33847    0.33847 
   0.22908    0.22908 
   0.18158    0.18158 

   0.24204    0.24204 
   0.23935    0.23935 
   0.22128    0.22128 
   0.22992    0.22992 
   0.22056    0.22056 
   0.22034    0.22034 
   0.22883    0.22883 
   0.21794    0.21794 
   0.24204    0.24204 

   0.18615    0.18615 
   0.24213    0.24213 
   0.18133    0.18133 
   0.16801    0.16801 
   0.16239    0.16239 
   0.16800    0.16800 
   0.18133    0.18133 
   0.24213    0.24213 
   0.18615    0.18615 
BAND:  7
   0.32477    0.32477 
   0.27478    0.27478 
   0.37969    0.37969 
   0.48078    0.48078 
   0.51069    0.51069 
   0.48078    0.48078 
   0.37969    0.37969 
   0.27478    0.27478 
   0.32477    0.32477 

   0.27475    0.27475 
   0.29134    0.29134 
   0.38060    0.38060 
   0.47077    0.47077 
   0.47089    0.47089 
   0.37975    0.37975 
   0.28737    0.28737 
   0.27448    0.27448 
   0.27475    0.27475 

   0.37956    0.37956 
   0.38036    0.38036 
   0.36362    0.36362 
   0.43924    0.43924 
   0.36097    0.36097 
   0.37916    0.37916 
   0.37744    0.37744 
   0.28737    0.28737 
   0.37956    0.37956 

   0.48074    0.48074 
   0.47062    0.47062 
   0.43915    0.43915 
   0.44080    0.44080 
   0.47178    0.47178 
   0.48175    0.48175 
   0.37942    0.37942 
   0.37977    0.37977 
   0.48074    0.48074 

   0.51063    0.51063 
   0.47087    0.47087 
   0.36104    0.36104 
   0.47192    0.47192 
   0.51223    0.51223 
   0.47192    0.47192 
   0.36104    0.36104 
   0.47087    0.47087 
   0.51063    0.51063 

   0.48074    0.48074 
   0.37977    0.37977 
   0.37941    0.37941 
   0.48175    0.48175 
   0.47178    0.47178 
   0.44080    0.44080 
   0.43915    0.43915 
   0.47061    0.47061 
   0.48074    0.48074 

   0.37956    0.37956 
   0.28737    0.28737 
   0.37743    0.37743 
   0.37916    0.37916 
   0.36097    0.36097 
   0.43924    0.43924 
   0.36362    0.36362 
   0.38036    0.38036 
   0.37956    0.37956 

   0.27475    0.27475 
   0.27448    0.27448 
   0.28737    0.28737 
   0.37975    0.37975 
   0.47089    0.47089 
   0.47077    0.47077 
   0.38060    0.38060 
   0.29134    0.29134 
   0.27475    0.27475 

   0.32477    0.32477 
   0.27478    0.27478 
   0.37969    0.37969 
   0.48078    0.48078 
   0.51069    0.51069 
   0.48078    0.48078 
   0.37969    0.37969 
   0.27478    0.27478 
   0.32477    0.32477 
BAND:  8
   0.34527    0.34527 
   0.36536    0.36536 
   0.41818    0.41818 
   0.54500    0.54500 
   0.59432    0.59432 
   0.54500    0.54500 
   0.41818    0.41818 
   0.36536    0.36536 
   0.34527    0.34527 

   0.36536    0.36536 
   0.40510    0.40510 
   0.47454    0.47454 
   0.55538    0.55538 
   0.55517    0.55517 
   0.47413    0.47413 
   0.40483    0.40483 
   0.36530    0.36530 
   0.36536    0.36536 

   0.41816    0.41816 
   0.47449    0.47449 
   0.52211    0.52211 
   0.49404    0.49404 
   0.52323    0.52323 
   0.47374    0.47374 
   0.41835    0.41835 
   0.40480    0.40480 
   0.41816    0.41816 

   0.54479    0.54479 
   0.55519    0.55519 
   0.49408    0.49408 
   0.49457    0.49457 
   0.55293    0.55293 
   0.54292    0.54292 
   0.47371    0.47371 
   0.47406    0.47406 
   0.54479    0.54479 

   0.59413    0.59413 
   0.55504    0.55504 
   0.52327    0.52327 
   0.55299    0.55299 
   0.59125    0.59125 
   0.55299    0.55299 
   0.52327    0.52327 
   0.55504    0.55504 
   0.59413    0.59413 

   0.54478    0.54478 
   0.47406    0.47406 
   0.47371    0.47371 
   0.54291    0.54291 
   0.55293    0.55293 
   0.49457    0.49457 
   0.49408    0.49408 
   0.55519    0.55519 
   0.54478    0.54478 

   0.41816    0.41816 
   0.40480    0.40480 
   0.41835    0.41835 
   0.47374    0.47374 
   0.52323    0.52323 
   0.49404    0.49404 
   0.52211    0.52211 
   0.47449    0.47449 
   0.41816    0.41816 

   0.36536    0.36536 
   0.36530    0.36530 
   0.40483    0.40483 
   0.47413    0.47413 
   0.55517    0.55517 
   0.55538    0.55538 
   0.47454    0.47454 
   0.40510    0.40510 
   0.36536    0.36536 

   0.34527    0.34527 
   0.36536    0.36536 
   0.41818    0.41818 
   0.54500    0.54500 
   0.59432    0.59432 
   0.54500    0.54500 
   0.41818    0.41818 
   0.36536    0.36536 
   0.34527    0.34527 
BAND:  9
   0.38298    0.38298 
   0.40095    0.40095 
   0.46577    0.46577 
   0.54891    0.54891 
   0.62722    0.62722 
   0.54891    0.54891 
   0.46577    0.46577 
   0.40095    0.40095 
   0.38298    0.38298 

   0.40089    0.40089 
   0.46004    0.46004 
   0.56285    0.56285 
   0.56613    0.56613 
   0.56677    0.56677 
   0.56387    0.56387 
   0.46028    0.46028 
   0.40118    0.40118 
   0.40089    0.40089 

   0.46566    0.46566 
   0.56286    0.56286 
   0.52470    0.52470 
   0.52205    0.52205 
   0.52354    0.52354 
   0.56390    0.56390 
   0.46572    0.46572 
   0.46007    0.46007 
   0.46566    0.46566 

   0.54880    0.54880 
   0.56618    0.56618 
   0.52185    0.52185 
   0.51963    0.51963 
   0.56721    0.56721 
   0.54733    0.54733 
   0.56392    0.56392 
   0.56390    0.56390 
   0.54880    0.54880 

   0.62722    0.62722 
   0.56683    0.56683 
   0.52336    0.52336 
   0.56722    0.56722 
   0.62765    0.62765 
   0.56722    0.56722 
   0.52336    0.52336 
   0.56683    0.56683 
   0.62722    0.62722 

   0.54880    0.54880 
   0.56390    0.56390 
   0.56392    0.56392 
   0.54733    0.54733 
   0.56721    0.56721 
   0.51963    0.51963 
   0.52185    0.52185 
   0.56618    0.56618 
   0.54880    0.54880 

   0.46566    0.46566 
   0.46007    0.46007 
   0.46572    0.46572 
   0.56390    0.56390 
   0.52354    0.52354 
   0.52205    0.52205 
   0.52470    0.52470 
   0.56286    0.56286 
   0.46566    0.46566 

   0.40089    0.40089 
   0.40118    0.40118 
   0.46028    0.46028 
   0.56387    0.56387 
   0.56677    0.56677 
   0.56613    0.56613 
   0.56285    0.56285 
   0.46004    0.46004 
   0.40089    0.40089 

   0.38298    0.38298 
   0.40095    0.40095 
   0.46577    0.46577 
   0.54891    0.54891 
   0.62722    0.62722 
   0.54891    0.54891 
   0.46577    0.46577 
   0.40095    0.40095 
   0.38298    0.38298 
BAND:  10
   0.52820    0.52820 
   0.53565    0.53565 
   0.55800    0.55800 
   0.59579    0.59579 
   0.63998    0.63998 
   0.59579    0.59579 
   0.55800    0.55800 
   0.53565    0.53565 
   0.52820    0.52820 

   0.53565    0.53565 
   0.54797    0.54797 
   0.57644    0.57644 
   0.67203    0.67203 
   0.67166    0.67166 
   0.57590    0.57590 
   0.54845    0.54845 
   0.53576    0.53576 
   0.53565    0.53565 

   0.55800    0.55800 
   0.57644    0.57644 
   0.71678    0.71678 
   0.77962    0.77962 
   0.71513    0.71513 
   0.57541    0.57541 
   0.55822    0.55822 
   0.54846    0.54846 
   0.55800    0.55800 

   0.59578    0.59578 
   0.67193    0.67193 
   0.77940    0.77940 
   0.77736    0.77736 
   0.66990    0.66990 
   0.59608    0.59608 
   0.57511    0.57511 
   0.57560    0.57560 
   0.59578    0.59578 

   0.63974    0.63974 
   0.67134    0.67134 
   0.71484    0.71484 
   0.66968    0.66968 
   0.63780    0.63780 
   0.66968    0.66968 
   0.71484    0.71484 
   0.67134    0.67134 
   0.63974    0.63974 

   0.59578    0.59578 
   0.57560    0.57560 
   0.57511    0.57511 
   0.59608    0.59608 
   0.66990    0.66990 
   0.77736    0.77736 
   0.77940    0.77940 
   0.67194    0.67194 
   0.59578    0.59578 

   0.55800    0.55800 
   0.54846    0.54846 
   0.55822    0.55822 
   0.57541    0.57541 
   0.71512    0.71512 
   0.77962    0.77962 
   0.71678    0.71678 
   0.57644    0.57644 
   0.55800    0.55800 

   0.53565    0.53565 
   0.53576    0.53576 
   0.54845    0.54845 
   0.57590    0.57590 
   0.67165    0.67165 
   0.67203    0.67203 
   0.57644    0.57644 
   0.54797    0.54797 
   0.53565    0.53565 

   0.52820    0.52820 
   0.53565    0.53565 
   0.55800    0.55800 
   0.59579    0.59579 
   0.63998    0.63998 
   0.59579    0.59579 
   0.55800    0.55800 
   0.53565    0.53565 
   0.52820    0.52820 
BAND:  11
   1.02043    1.02043 
   0.95851    0.95851 
   0.86609    0.86609 
   0.80294    0.80294 
   0.74495    0.74495 
   0.80294    0.80294 
   0.86609    0.86609 
   0.95851    0.95851 
   1.02043    1.02043 

   0.95873    0.95873 
   0.85105    0.85105 
   0.76028    0.76028 
   0.74656    0.74656 
   0.74542    0.74542 
   0.75935    0.75935 
   0.85123    0.85123 
   0.95929    0.95929 
   0.95873    0.95873 

   0.86632    0.86632 
   0.76035    0.76035 
   0.74156    0.74156 
   0.77964    0.77964 
   0.74079    0.74079 
   0.75990    0.75990 
   0.86648    0.86648 
   0.85128    0.85128 
   0.86632    0.86632 

   0.80290    0.80290 
   0.74657    0.74657 
   0.77957    0.77957 
   0.77986    0.77986 
   0.74615    0.74615 
   0.80383    0.80383 
   0.75987    0.75987 
   0.75938    0.75938 
   0.80290    0.80290 

   0.74488    0.74488 
   0.74538    0.74538 
   0.74074    0.74074 
   0.74609    0.74609 
   0.74522    0.74522 
   0.74609    0.74609 
   0.74074    0.74074 
   0.74538    0.74538 
   0.74488    0.74488 

   0.80291    0.80291 
   0.75939    0.75939 
   0.75987    0.75987 
   0.80383    0.80383 
   0.74615    0.74615 
   0.77986    0.77986 
   0.77957    0.77957 
   0.74657    0.74657 
   0.80291    0.80291 

   0.86632    0.86632 
   0.85129    0.85129 
   0.86648    0.86648 
   0.75990    0.75990 
   0.74079    0.74079 
   0.77964    0.77964 
   0.74156    0.74156 
   0.76035    0.76035 
   0.86632    0.86632 

   0.95873    0.95873 
   0.95930    0.95930 
   0.85123    0.85123 
   0.75935    0.75935 
   0.74542    0.74542 
   0.74656    0.74656 
   0.76028    0.76028 
   0.85105    0.85105 
   0.95873    0.95873 

   1.02043    1.02043 
   0.95851    0.95851 
   0.86609    0.86609 
   0.80294    0.80294 
   0.74495    0.74495 
   0.80294    0.80294 
   0.86609    0.86609 
   0.95851    0.95851 
   1.02043    1.02043 
BAND:  12
   1.02213    1.02213 
   0.99305    0.99305 
   0.90813    0.90813 
   0.80464    0.80464 
   0.78337    0.78337 
   0.80464    0.80464 
   0.90813    0.90813 
   0.99305    0.99305 
   1.02213    1.02213 

   0.99291    0.99291 
   0.96803    0.96803 
   0.92760    0.92760 
   0.84181    0.84181 
   0.84259    0.84259 
   0.92711    0.92711 
   0.96823    0.96823 
   0.99273    0.99273 
   0.99291    0.99291 

   0.90808    0.90808 
   0.92762    0.92762 
   0.87071    0.87071 
   0.83423    0.83423 
   0.87146    0.87146 
   0.92874    0.92874 
   0.90894    0.90894 
   0.96801    0.96801 
   0.90808    0.90808 

   0.80488    0.80488 
   0.84186    0.84186 
   0.83429    0.83429 
   0.83358    0.83358 
   0.84182    0.84182 
   0.80464    0.80464 
   0.92848    0.92848 
   0.92686    0.92686 
   0.80488    0.80488 

   0.78363    0.78363 
   0.84271    0.84271 
   0.87119    0.87119 
   0.84190    0.84190 
   0.78362    0.78362 
   0.84190    0.84190 
   0.87119    0.87119 
   0.84271    0.84271 
   0.78363    0.78363 

   0.80487    0.80487 
   0.92686    0.92686 
   0.92848    0.92848 
   0.80464    0.80464 
   0.84182    0.84182 
   0.83358    0.83358 
   0.83429    0.83429 
   0.84186    0.84186 
   0.80487    0.80487 

   0.90808    0.90808 
   0.96801    0.96801 
   0.90894    0.90894 
   0.92874    0.92874 
   0.87146    0.87146 
   0.83423    0.83423 
   0.87071    0.87071 
   0.92762    0.92762 
   0.90808    0.90808 

   0.99291    0.99291 
   0.99273    0.99273 
   0.96823    0.96823 
   0.92711    0.92711 
   0.84259    0.84259 
   0.84181    0.84181 
   0.92760    0.92760 
   0.96803    0.96803 
   0.99291    0.99291 

   1.02213    1.02213 
   0.99305    0.99305 
   0.90813    0.90813 
   0.80464    0.80464 
   0.78337    0.78337 
   0.80464    0.80464 
   0.90813    0.90813 
   0.99305    0.99305 
   1.02213    1.02213 
BAND:  13
   1.05975    1.05975 
   1.01485    1.01485 
   0.97330    0.97330 
   0.94457    0.94457 
   0.92188    0.92188 
   0.94457    0.94457 
   0.97330    0.97330 
   1.01485    1.01485 
   1.05975    1.05975 

   1.01477    1.01477 
   0.98815    0.98815 
   0.93101    0.93101 
   0.91106    0.91106 
   0.90985    0.90985 
   0.93156    0.93156 
   0.98816    0.98816 
   1.01525    1.01525 
   1.01477    1.01477 

   0.97317    0.97317 
   0.93101    0.93101 
   0.89309    0.89309 
   0.89857    0.89857 
   0.89316    0.89316 
   0.93147    0.93147 
   0.97454    0.97454 
   0.98822    0.98822 
   0.97317    0.97317 

   0.94452    0.94452 
   0.91121    0.91121 
   0.89868    0.89868 
   0.90313    0.90313 
   0.91473    0.91473 
   0.94793    0.94793 
   0.93157    0.93157 
   0.93167    0.93167 
   0.94452    0.94452 

   0.92195    0.92195 
   0.90975    0.90975 
   0.89324    0.89324 
   0.91448    0.91448 
   0.92729    0.92729 
   0.91448    0.91448 
   0.89324    0.89324 
   0.90975    0.90975 
   0.92195    0.92195 

   0.94452    0.94452 
   0.93167    0.93167 
   0.93157    0.93157 
   0.94793    0.94793 
   0.91473    0.91473 
   0.90313    0.90313 
   0.89868    0.89868 
   0.91121    0.91121 
   0.94452    0.94452 

   0.97317    0.97317 
   0.98822    0.98822 
   0.97454    0.97454 
   0.93147    0.93147 
   0.89316    0.89316 
   0.89857    0.89857 
   0.89309    0.89309 
   0.93101    0.93101 
   0.97317    0.97317 

   1.01477    1.01477 
   1.01525    1.01525 
   0.98816    0.98816 
   0.93156    0.93156 
   0.90985    0.90985 
   0.91106    0.91106 
   0.93101    0.93101 
   0.98815    0.98815 
   1.01477    1.01477 

   1.05975    1.05975 
   1.01485    1.01485 
   0.97330    0.97330 
   0.94457    0.94457 
   0.92188    0.92188 
   0.94457    0.94457 
   0.97330    0.97330 
   1.01485    1.01485 
   1.05975    1.05975 
BAND:  14
   1.44542    1.44542 
   1.50598    1.50598 
   1.36896    1.36896 
   1.21466    1.21466 
   1.12719    1.12719 
   1.21466    1.21466 
   1.36895    1.36895 
   1.50598    1.50598 
   1.44542    1.44542 

   1.50614    1.50614 
   1.45472    1.45472 
   1.26813    1.26813 
   1.09566    1.09566 
   1.09793    1.09793 
   1.27159    1.27159 
   1.45847    1.45847 
   1.50982    1.50982 
   1.50614    1.50614 

   1.36925    1.36925 
   1.26809    1.26809 
   1.09884    1.09884 
   0.95819    0.95819 
   1.10125    1.10125 
   1.27119    1.27119 
   1.37017    1.37017 
   1.45901    1.45901 
   1.36925    1.36925 

   1.21483    1.21483 
   1.09556    1.09556 
   0.95820    0.95820 
   0.95675    0.95675 
   1.09685    1.09685 
   1.21599    1.21599 
   1.27164    1.27164 
   1.27200    1.27200 
   1.21483    1.21483 

   1.12731    1.12731 
   1.09813    1.09813 
   1.10159    1.10159 
   1.09715    1.09715 
   1.12849    1.12849 
   1.09715    1.09715 
   1.10158    1.10158 
   1.09813    1.09813 
   1.12731    1.12731 

   1.21483    1.21483 
   1.27201    1.27201 
   1.27164    1.27164 
   1.21599    1.21599 
   1.09685    1.09685 
   0.95675    0.95675 
   0.95820    0.95820 
   1.09556    1.09556 
   1.21483    1.21483 

   1.36925    1.36925 
   1.45901    1.45901 
   1.37017    1.37017 
   1.27119    1.27119 
   1.10125    1.10125 
   0.95819    0.95819 
   1.09884    1.09884 
   1.26809    1.26809 
   1.36925    1.36925 

   1.50614    1.50614 
   1.50982    1.50982 
   1.45847    1.45847 
   1.27159    1.27159 
   1.09794    1.09794 
   1.09566    1.09566 
   1.26813    1.26813 
   1.45472    1.45472 
   1.50614    1.50614 

   1.44542    1.44542 
   1.50598    1.50598 
   1.36896    1.36896 
   1.21466    1.21466 
   1.12719    1.12719 
   1.21466    1.21466 
   1.36895    1.36895 
   1.50598    1.50598 
   1.44542    1.44542 
BAND:  15
   1.45130    1.45130 
   1.58068    1.58068 
   1.56256    1.56256 
   1.29553    1.29553 
   1.23104    1.23104 
   1.29553    1.29553 
   1.56256    1.56256 
   1.58068    1.58068 
   1.45130    1.45130 

   1.58050    1.58050 
   1.56505    1.56505 
   1.40127    1.40127 
   1.29766    1.29766 
   1.29719    1.29719 
   1.39984    1.39984 
   1.57049    1.57049 
   1.57657    1.57657 
   1.58050    1.58050 

   1.56269    1.56269 
   1.40145    1.40145 
   1.39785    1.39785 
   1.35434    1.35434 
   1.39716    1.39716 
   1.40069    1.40069 
   1.56261    1.56261 
   1.57102    1.57102 
   1.56269    1.56269 

   1.29571    1.29571 
   1.29797    1.29797 
   1.35425    1.35425 
   1.35314    1.35314 
   1.29897    1.29897 
   1.29613    1.29613 
   1.40064    1.40064 
   1.39997    1.39997 
   1.29571    1.29571 

   1.23132    1.23132 
   1.29750    1.29750 
   1.39732    1.39732 
   1.29897    1.29897 
   1.23245    1.23245 
   1.29897    1.29897 
   1.39732    1.39732 
   1.29750    1.29750 
   1.23132    1.23132 

   1.29571    1.29571 
   1.39997    1.39997 
   1.40064    1.40064 
   1.29614    1.29614 
   1.29897    1.29897 
   1.35314    1.35314 
   1.35425    1.35425 
   1.29798    1.29798 
   1.29571    1.29571 

   1.56270    1.56270 
   1.57102    1.57102 
   1.56262    1.56262 
   1.40069    1.40069 
   1.39716    1.39716 
   1.35434    1.35434 
   1.39785    1.39785 
   1.40145    1.40145 
   1.56270    1.56270 

   1.58050    1.58050 
   1.57657    1.57657 
   1.57049    1.57049 
   1.39984    1.39984 
   1.29719    1.29719 
   1.29766    1.29766 
   1.40127    1.40127 
   1.56505    1.56505 
   1.58050    1.58050 

   1.45130    1.45130 
   1.58068    1.58068 
   1.56256    1.56256 
   1.29553    1.29553 
   1.23104    1.23104 
   1.29553    1.29553 
   1.56256    1.56256 
   1.58068    1.58068 
   1.45130    1.45130 
BAND:  16
   1.82154    1.82154 
   1.59508    1.59508 
   1.66972    1.66972 
   1.52298    1.52298 
   1.43754    1.43754 
   1.52298    1.52298 
   1.66972    1.66972 
   1.59508    1.59508 
   1.82154    1.82154 

   1.59553    1.59553 
   1.70552    1.70552 
   1.58731    1.58731 
   1.47300    1.47300 
   1.47230    1.47230 
   1.58506    1.58506 
   1.70331    1.70331 
   1.59633    1.59633 
   1.59553    1.59553 

   1.66972    1.66972 
   1.58725    1.58725 
   1.41705    1.41705 
   1.42787    1.42787 
   1.41500    1.41500 
   1.58277    1.58277 
   1.66714    1.66714 
   1.70367    1.70367 
   1.66972    1.66972 

   1.52266    1.52266 
   1.47291    1.47291 
   1.42822    1.42822 
   1.42938    1.42938 
   1.46965    1.46965 
   1.51609    1.51609 
   1.58243    1.58243 
   1.58465    1.58465 
   1.52266    1.52266 

   1.43711    1.43711 
   1.47206    1.47206 
   1.41474    1.41474 
   1.46951    1.46951 
   1.42892    1.42892 
   1.46950    1.46950 
   1.41474    1.41474 
   1.47206    1.47206 
   1.43711    1.43711 

   1.52266    1.52266 
   1.58465    1.58465 
   1.58243    1.58243 
   1.51610    1.51610 
   1.46965    1.46965 
   1.42938    1.42938 
   1.42823    1.42823 
   1.47291    1.47291 
   1.52266    1.52266 

   1.66972    1.66972 
   1.70367    1.70367 
   1.66714    1.66714 
   1.58277    1.58277 
   1.41500    1.41500 
   1.42787    1.42787 
   1.41705    1.41705 
   1.58725    1.58725 
   1.66972    1.66972 

   1.59553    1.59553 